Title="2-D Euler solver"
Variables="I","J","JACOBIAN","rho","u","v","p","MACH"

Zone I=    71, J=    48, F=POINT
  -0.500000        0.00000        2569.43        4.00000        1.00000        0.00000       0.714286        2.00000    
  -0.466700        0.00000        2550.83        4.00000        1.00000        0.00000       0.714285        2.00000    
  -0.433300        0.00000        2545.42        3.99953       0.999927        0.00000       0.714285        1.99974    
  -0.400000        0.00000        2543.84        4.00092        1.00014        0.00000       0.714288        2.00051    
  -0.366700        0.00000        2530.38        4.00001        1.00000        0.00000       0.714288        2.00000    
  -0.333300        0.00000        2521.87        4.00002        1.00000        0.00000       0.714287        2.00001    
  -0.300000        0.00000        2514.03        3.99868       0.999792        0.00000       0.714288        1.99925    
  -0.266700        0.00000        2500.83        4.00003        1.00000        0.00000       0.714288        2.00001    
  -0.233300        0.00000        2488.38        3.99906       0.999851        0.00000       0.714288        1.99946    
  -0.200000        0.00000        2477.73        3.99787       0.999659        0.00000       0.714295        1.99877    
  -0.166700        0.00000        2456.78        4.00374        1.00057        0.00000       0.714296        2.00207    
  -0.133300        0.00000        2431.87        4.00312        1.00047        0.00000       0.714310        2.00168    
  -0.100000        0.00000        2403.24        3.99752       0.999565        0.00000       0.714340        1.99844    
  -0.666700E-01    0.00000        2351.90        4.00074        1.00000        0.00000       0.714416        2.00000    
  -0.333300E-01    0.00000        2266.60        3.99694       0.999995        0.00000       0.713744        1.99998    
    0.00000        0.00000        2335.37        4.15774       0.971486       0.734485E-01   0.775686        1.90632    
   0.250000E-01   0.441000E-02    2958.72        4.61392       0.917898       0.161917       0.924092        1.76020    
   0.500000E-01   0.882000E-02    3086.92        5.18929       0.873287       0.154048        1.09881        1.62869    
   0.750000E-01   0.132300E-01    3174.02        5.59651       0.854993       0.150821        1.21099        1.57740    
   0.100000       0.176400E-01    3242.59        5.69633       0.860501       0.151792        1.22598        1.59183    
   0.125000       0.220500E-01    3306.60        5.73284       0.869904       0.153451        1.22058        1.61794    
   0.150000       0.264600E-01    3354.06        5.74317       0.874559       0.154272        1.21619        1.63100    
   0.175000       0.308700E-01    3410.24        5.76084       0.876423       0.154601        1.21702        1.63643    
   0.200000       0.352800E-01    3450.30        5.76668       0.875336       0.154409        1.22020        1.63310    
   0.225000       0.396900E-01    3508.24        5.76823       0.876484       0.154612        1.21959        1.63587    
   0.250000       0.441000E-01    3550.64        5.75927       0.876942       0.154692        1.21847        1.63620    
   0.275000       0.485100E-01    3607.15        5.75452       0.878853       0.155030        1.21564        1.64100    
   0.300000       0.529200E-01    3655.33        5.74068       0.880217       0.155270        1.21206        1.64399    
   0.325000       0.573300E-01    3722.16        5.73183       0.883125       0.155783        1.20703        1.65158    
   0.350000       0.617400E-01    3780.62        5.70546       0.885450       0.156193        1.20144        1.65595    
   0.375000       0.661500E-01    3867.04        5.67588       0.888883       0.156799        1.19523        1.66236    
   0.400000       0.705600E-01    3953.49        5.64391       0.893117       0.157546        1.18612        1.67195    
   0.425000       0.749700E-01    4085.31        5.61005       0.896357       0.158117        1.17309        1.68224    
   0.450000       0.793800E-01    4244.03        5.54618       0.897275       0.158279        1.15886        1.68460    
   0.475000       0.837900E-01    4572.81        5.51481       0.899611       0.158691        1.15383        1.68787    
   0.500000       0.882000E-01    5673.76        4.71860       0.964417        0.00000       0.915056        1.85090    
   0.525000       0.837900E-01    4576.51        3.49399        1.05340      -0.185820       0.588844        2.20214    
   0.550000       0.793800E-01    4261.46        2.81218        1.07608      -0.189821       0.452828        2.30140    
   0.575000       0.749700E-01    4076.26        2.47927        1.07048      -0.188833       0.408348        2.26369    
   0.600000       0.705600E-01    3945.01        2.34962        1.07155      -0.189022       0.383665        2.27576    
   0.625000       0.661500E-01    3857.07        2.25135        1.07334      -0.189338       0.373675        2.26101    
   0.650000       0.617400E-01    3778.21        2.18277        1.07306      -0.189289       0.361835        2.26185    
   0.675000       0.573300E-01    3719.82        2.15528        1.07378      -0.189415       0.355069        2.27039    
   0.700000       0.529200E-01    3653.08        2.13073        1.07223      -0.189142       0.352729        2.26164    
   0.725000       0.485100E-01    3603.33        2.11914        1.07361      -0.189386       0.350615        2.26518    
   0.750000       0.441000E-01    3548.52        2.10657        1.07429      -0.189504       0.348787        2.26578    
   0.775000       0.396900E-01    3507.34        2.10647        1.07787      -0.190136       0.347146        2.27865    
   0.800000       0.352800E-01    3449.43        2.09505        1.07836      -0.190223       0.345640        2.27845    
   0.825000       0.308700E-01    3409.39        2.09245        1.08105      -0.190697       0.344215        2.28744    
   0.850000       0.264600E-01    3351.84        2.08328        1.08171      -0.190814       0.343028        2.28776    
   0.875000       0.220500E-01    3296.19        2.07533        1.08259      -0.190970       0.341937        2.28890    
   0.900000       0.176400E-01    3241.12        2.07310        1.08476      -0.191352       0.340933        2.29562    
   0.925000       0.132300E-01    3176.11        2.06745        1.08440      -0.191288       0.340477        2.29326    
   0.950000       0.882000E-02    3089.94        2.07089        1.08965      -0.192214       0.338935        2.31152    
   0.975000       0.441000E-02    2959.31        2.02541        1.08656      -0.191669       0.337773        2.28343    
    1.00000        0.00000        2359.73        2.20890        1.07898      -0.820396E-01   0.373609        2.22372    
    1.03300        0.00000        2257.15        2.58140        1.04586        0.00000       0.458893        2.09644    
    1.06700        0.00000        2339.40        2.98190        1.01951        0.00000       0.554321        1.99845    
    1.10000        0.00000        2425.21        3.32804       0.979473        0.00000       0.646262        1.87853    
    1.13300        0.00000        2420.99        3.57238       0.960963        0.00000       0.702311        1.83171    
    1.16700        0.00000        2444.78        3.73569       0.953641        0.00000       0.728878        1.82465    
    1.20000        0.00000        2500.25        3.85868       0.944108        0.00000       0.754638        1.80430    
    1.23300        0.00000        2477.24        3.87141       0.926419        0.00000       0.770315        1.75527    
    1.26700        0.00000        2489.64        3.90869       0.921101        0.00000       0.781104        1.74142    
    1.30000        0.00000        2536.88        3.91792       0.914228        0.00000       0.787911        1.72298    
    1.33300        0.00000        2510.58        3.96248       0.913528        0.00000       0.793859        1.72492    
    1.36700        0.00000        2519.05        3.97463       0.906297        0.00000       0.797301        1.71019    
    1.40000        0.00000        2566.97        4.00159       0.904761        0.00000       0.793840        1.71680    
    1.43300        0.00000        2534.02        4.01089       0.903881        0.00000       0.787870        1.72361    
    1.46700        0.00000        2539.41        4.06679       0.918470        0.00000       0.785751        1.76598    
    1.50000        0.00000        2628.73        4.06691       0.918490        0.00000       0.785767        1.76602    
  -0.500000       0.118300E-01    2511.92        4.00000        1.00000        0.00000       0.714286        2.00000    
  -0.466700       0.118700E-01    2505.62        4.00000        1.00000      -0.719698E-06   0.714285        2.00000    
  -0.433400       0.119000E-01    2502.07        4.00000        1.00000       0.117623E-05   0.714285        2.00000    
  -0.400200       0.119300E-01    2494.80        4.00001       0.999998       0.180265E-05   0.714288        1.99999    
  -0.366900       0.119700E-01    2483.82        4.00001        1.00000       0.135608E-06   0.714288        2.00000    
  -0.333600       0.120100E-01    2475.60        4.00001        1.00000      -0.926142E-06   0.714287        2.00000    
  -0.300300       0.120600E-01    2470.13        4.00002        1.00000      -0.707225E-07   0.714288        2.00000    
  -0.267100       0.121100E-01    2459.00        4.00002        1.00000       0.153049E-05   0.714288        2.00000    
  -0.233800       0.121700E-01    2443.26        4.00001        1.00000      -0.962535E-06   0.714288        2.00000    
  -0.200500       0.122400E-01    2433.01        4.00004       0.999999       0.138392E-06   0.714295        2.00000    
  -0.167300       0.123300E-01    2414.37        4.00003       0.999996       0.255655E-05   0.714296        1.99998    
  -0.134000       0.124500E-01    2388.50        4.00014        1.00000       0.532103E-06   0.714310        2.00000    
  -0.100700       0.126100E-01    2360.27        4.00033        1.00000       0.167323E-05   0.714340        2.00001    
  -0.674600E-01   0.128600E-01    2318.59        4.00083        1.00001       0.120746E-04   0.714416        2.00005    
  -0.342100E-01   0.133000E-01    2246.82        3.99674       0.999964      -0.429758E-04   0.713744        1.99987    
  -0.958600E-03   0.144000E-01    2403.67        4.23673       0.983906       0.214386E-01   0.775686        1.94386    
   0.241200E-01   0.178100E-01    2940.21        4.79777       0.946066       0.739110E-01   0.924092        1.82743    
   0.491900E-01   0.217200E-01    3042.24        5.42380       0.904565       0.110152        1.09881        1.71105    
   0.742500E-01   0.258000E-01    3119.15        5.80131       0.877875       0.131338        1.21099        1.64198    
   0.993100E-01   0.299600E-01    3180.03        5.83907       0.871625       0.145110        1.22598        1.62979    
   0.124400       0.341600E-01    3238.45        5.81927       0.871581       0.151088        1.22058        1.63239    
   0.149400       0.383900E-01    3287.93        5.80538       0.872223       0.153744        1.21619        1.63539    
   0.174500       0.426300E-01    3336.88        5.80784       0.871875       0.153672        1.21702        1.63452    
   0.199500       0.468900E-01    3383.08        5.81768       0.871394       0.153455        1.22020        1.63283    
   0.224600       0.511400E-01    3430.62        5.81372       0.871700       0.153747        1.21959        1.63333    
   0.249600       0.554000E-01    3479.48        5.80604       0.872336       0.153902        1.21847        1.63421    
   0.274700       0.596600E-01    3528.25        5.79538       0.873384       0.154049        1.21564        1.63656    
   0.299700       0.639100E-01    3583.23        5.78245       0.874882       0.154195        1.21207        1.63991    
   0.324800       0.681500E-01    3641.60        5.76608       0.876686       0.154454        1.20704        1.64436    
   0.349800       0.723800E-01    3707.07        5.74381       0.879586       0.154875        1.20145        1.65041    
   0.374900       0.765800E-01    3783.88        5.71217       0.882729       0.155245        1.19524        1.65597    
   0.399900       0.807500E-01    3877.05        5.68108       0.887002       0.156225        1.18614        1.66587    
   0.425000       0.848600E-01    3996.77        5.64448       0.889825       0.156630        1.17312        1.67497    
   0.450000       0.888800E-01    4169.21        5.59726       0.893147       0.157046        1.15887        1.68439    
   0.475100       0.926500E-01    4464.55        5.58189       0.897727       0.158005        1.15384        1.69443    
   0.500100       0.956000E-01    5150.93        4.64192       0.947363       0.100835       0.915063        1.81352    
   0.525200       0.926200E-01    4444.45        3.32436        1.02095      -0.260998E-01   0.588849        2.05086    
   0.550200       0.888300E-01    4167.50        2.73556        1.05348      -0.985928E-01   0.452835        2.19790    
   0.575300       0.848200E-01    3988.64        2.49353        1.06140      -0.138601       0.408354        2.23550    
   0.600400       0.807100E-01    3876.55        2.40425        1.06845      -0.160736       0.383669        2.28592    
   0.625400       0.765400E-01    3785.01        2.32227        1.07273      -0.173161       0.373678        2.28940    
   0.650500       0.723300E-01    3708.05        2.27407        1.07638      -0.180732       0.361839        2.31250    
   0.675500       0.681000E-01    3642.51        2.25490        1.07842      -0.184810       0.355073        2.33031    
   0.700600       0.638600E-01    3584.08        2.24446        1.07991      -0.188210       0.352733        2.33697    
   0.725600       0.596100E-01    3530.60        2.23515        1.08161      -0.189944       0.350619        2.34335    
   0.750700       0.553500E-01    3480.23        2.22702        1.08332      -0.190698       0.348791        2.34909    
   0.775700       0.510900E-01    3430.33        2.21986        1.08503      -0.191205       0.347149        2.35463    
   0.800800       0.468400E-01    3382.81        2.21338        1.08673      -0.191635       0.345643        2.36005    
   0.825800       0.425800E-01    3336.63        2.20722        1.08845      -0.192021       0.344217        2.36541    
   0.850900       0.383400E-01    3282.62        2.20222        1.09012      -0.192444       0.343031        2.37049    
   0.876000       0.341100E-01    3237.68        2.19784        1.09183      -0.192913       0.341940        2.37569    
   0.901000       0.299100E-01    3182.90        2.19408        1.09354      -0.193230       0.340935        2.38087    
   0.926100       0.257400E-01    3118.54        2.19160        1.09401      -0.193300       0.340479        2.38214    
   0.951100       0.216700E-01    3041.96        2.18815        1.09723      -0.194131       0.338937        2.39280    
   0.976200       0.177600E-01    2953.47        2.15190        1.09716      -0.195981       0.337774        2.37753    
    1.00100       0.143700E-01    2422.94        2.29311        1.08634      -0.164277       0.373609        2.30046    
    1.03400       0.132900E-01    2229.53        2.69640        1.06625      -0.999541E-01   0.458895        2.19397    
    1.06800       0.128600E-01    2301.50        3.09081        1.04039      -0.538079E-01   0.554303        2.07909    
    1.10100       0.126100E-01    2380.22        3.45333        1.00414      -0.224844E-01   0.646213        1.96233    
    1.13400       0.124500E-01    2409.93        3.65590       0.977232      -0.519088E-02   0.702261        1.88446    
    1.16700       0.123300E-01    2397.35        3.76298       0.958873       0.137843E-02   0.728834        1.84141    
    1.20100       0.122400E-01    2414.88        3.85203       0.942889       0.244499E-02   0.754606        1.80046    
    1.23400       0.121700E-01    2465.27        3.90320       0.932542       0.213559E-02   0.770294        1.77414    
    1.26700       0.121100E-01    2477.59        3.92868       0.924969       0.185613E-02   0.781090        1.75322    
    1.30000       0.120600E-01    2451.66        3.94338       0.919201       0.189416E-02   0.787896        1.73799    
    1.33400       0.120100E-01    2460.77        3.96891       0.914789       0.164613E-02   0.793845        1.72872    
    1.36700       0.119700E-01    2506.45        4.01043       0.913208       0.130763E-02   0.797295        1.73098    
    1.40000       0.119300E-01    2513.73        4.04072       0.912179       0.837857E-03   0.793843        1.73931    
    1.43300       0.119000E-01    2483.33        4.06065       0.913169       0.328588E-04   0.787871        1.75210    
    1.46700       0.118700E-01    2490.68        4.10438       0.925188      -0.554394E-03   0.785735        1.78711    
    1.50000       0.118300E-01    2573.75        4.10447       0.925203      -0.554737E-03   0.785751        1.78714    
  -0.500000       0.239100E-01    2468.89        4.00000        1.00000        0.00000       0.714286        2.00000    
  -0.466800       0.239700E-01    2463.82        4.00000        1.00000       0.119756E-05   0.714285        2.00000    
  -0.433600       0.240400E-01    2453.05        4.00001        1.00000      -0.191857E-05   0.714286        2.00000    
  -0.400300       0.241100E-01    2445.07        4.00001       0.999999      -0.135027E-05   0.714289        2.00000    
  -0.367100       0.241800E-01    2441.78        4.00001       0.999999       0.991587E-06   0.714288        2.00000    
  -0.333900       0.242600E-01    2433.83        4.00000       0.999999       0.849082E-06   0.714286        2.00000    
  -0.300700       0.243500E-01    2424.95        4.00001       0.999999       0.852251E-07   0.714288        2.00000    
  -0.267500       0.244600E-01    2414.20        4.00002       0.999999       0.270526E-06   0.714291        2.00000    
  -0.234300       0.245800E-01    2402.57        4.00002       0.999999       0.107732E-05   0.714290        2.00000    
  -0.201100       0.247200E-01    2384.51        4.00004        1.00000      -0.213836E-05   0.714293        2.00000    
  -0.167800       0.249100E-01    2368.35        4.00008        1.00000      -0.227195E-05   0.714299        2.00000    
  -0.134600       0.251400E-01    2353.88        4.00012       0.999998       0.358978E-05   0.714308        1.99999    
  -0.101500       0.254600E-01    2324.07        4.00025        1.00000       0.504110E-05   0.714330        2.00000    
  -0.682700E-01   0.259300E-01    2282.27        4.00062        1.00000       0.188513E-04   0.714392        2.00001    
  -0.350900E-01   0.267300E-01    2228.66        3.99766       0.999982      -0.817618E-04   0.713888        1.99994    
  -0.193300E-02   0.283800E-01    2451.89        4.09031       0.993723       0.101141E-01   0.737682        1.97773    
   0.232300E-01   0.312800E-01    2916.52        4.40150       0.970548       0.427035E-01   0.821405        1.90062    
   0.483800E-01   0.347900E-01    2996.12        4.90099       0.934356       0.888384E-01   0.958296        1.79388    
   0.735000E-01   0.385700E-01    3064.84        5.32230       0.899914       0.124710        1.08353        1.70175    
   0.986100E-01   0.424900E-01    3124.65        5.55962       0.882477       0.143969        1.15223        1.65995    
   0.123700       0.464900E-01    3176.64        5.68786       0.874055       0.150837        1.18897        1.63959    
   0.148800       0.505400E-01    3225.43        5.75907       0.869948       0.151838        1.20942        1.62867    
   0.173900       0.546100E-01    3271.12        5.78788       0.868367       0.151780        1.21775        1.62426    
   0.199000       0.587100E-01    3319.08        5.79533       0.867950       0.152359        1.21984        1.62334    
   0.224100       0.628100E-01    3361.08        5.79540       0.868002       0.152880        1.21944        1.62387    
   0.249200       0.669100E-01    3410.36        5.79229       0.868270       0.153096        1.21857        1.62457    
   0.274300       0.710200E-01    3457.76        5.78462       0.869100       0.153091        1.21692        1.62610    
   0.299400       0.751000E-01    3513.10        5.77580       0.870139       0.152999        1.21366        1.62890    
   0.324500       0.791700E-01    3568.23        5.75877       0.871553       0.153021        1.20805        1.63285    
   0.349600       0.832100E-01    3637.09        5.73505       0.874363       0.153430        1.20179        1.63896    
   0.374700       0.872000E-01    3708.30        5.71185       0.878016       0.154182        1.19619        1.64635    
   0.399800       0.911200E-01    3800.61        5.68527       0.881621       0.154711        1.18625        1.65612    
   0.424900       0.949300E-01    3914.63        5.62859       0.884882       0.155181        1.17169        1.66415    
   0.450000       0.985300E-01    4076.73        5.59435       0.889858       0.155915        1.15913        1.67738    
   0.475200       0.101700        4312.58        5.57206       0.894947       0.157286        1.15278        1.68839    
   0.500300       0.103700        4714.87        5.05993       0.928384       0.121203        1.01385        1.76774    
   0.525400       0.101700        4325.39        3.99466       0.986081       0.307452E-01   0.748033        1.92681    
   0.550500       0.984600E-01    4078.22        3.21605        1.03116      -0.617885E-01   0.557793        2.09636    
   0.575600       0.948500E-01    3911.95        2.86266        1.05151      -0.113966       0.476347        2.19133    
   0.600700       0.910400E-01    3794.72        2.65797        1.06347      -0.144662       0.430413        2.25410    
   0.625800       0.871100E-01    3708.48        2.52595        1.07194      -0.161615       0.401722        2.29741    
   0.650900       0.831200E-01    3632.78        2.43523        1.07830      -0.173873       0.382043        2.33058    
   0.676000       0.790800E-01    3568.10        2.37428        1.08300      -0.181369       0.368957        2.35423    
   0.701100       0.750100E-01    3510.37        2.33439        1.08645      -0.186026       0.360466        2.37069    
   0.726200       0.709200E-01    3456.57        2.30805        1.08912      -0.188990       0.354873        2.38254    
   0.751300       0.668200E-01    3402.46        2.29021        1.09133      -0.190808       0.351099        2.39142    
   0.776500       0.627100E-01    3353.30        2.27725        1.09330      -0.191940       0.348385        2.39851    
   0.801600       0.586100E-01    3315.72        2.26708        1.09513      -0.192737       0.346290        2.40458    
   0.826700       0.545100E-01    3270.05        2.25892        1.09685      -0.193367       0.344649        2.40986    
   0.851800       0.504300E-01    3224.51        2.25238        1.09854      -0.194059       0.343317        2.41489    
   0.876900       0.463900E-01    3176.54        2.24655        1.10026      -0.194638       0.342116        2.41988    
   0.902000       0.423900E-01    3117.24        2.24129        1.10193      -0.194904       0.341013        2.42460    
   0.927200       0.384700E-01    3059.00        2.23819        1.10359      -0.195459       0.340322        2.42915    
   0.952300       0.347000E-01    2998.06        2.23391        1.10527      -0.195557       0.339463        2.43352    
   0.977400       0.312000E-01    2892.96        2.22487        1.10795      -0.198531       0.335114        2.45117    
    1.00300       0.283300E-01    2437.85        2.25882        1.10047      -0.185677       0.351233        2.39196    
    1.03600       0.267100E-01    2238.90        2.46598        1.08723      -0.143148       0.399916        2.30144    
    1.06900       0.259200E-01    2298.45        2.81489        1.06298      -0.862866E-01   0.480439        2.18172    
    1.10200       0.254500E-01    2336.07        3.18076        1.02936      -0.378629E-01   0.572411        2.05215    
    1.13500       0.251400E-01    2364.96        3.49565       0.993739      -0.695346E-02   0.654505        1.94100    
    1.16800       0.249000E-01    2385.81        3.70903       0.966385       0.249360E-02   0.712099        1.86401    
    1.20100       0.247200E-01    2367.72        3.84418       0.947912       0.308981E-02   0.747393        1.81691    
    1.23500       0.245800E-01    2381.97        3.93418       0.936195       0.313252E-02   0.769124        1.78951    
    1.26800       0.244600E-01    2429.74        3.96898       0.928789       0.304614E-02   0.780940        1.76965    
    1.30100       0.243500E-01    2439.56        3.98202       0.924125       0.332773E-02   0.787154        1.75668    
    1.33400       0.242600E-01    2448.73        4.00695       0.921532       0.295088E-02   0.793400        1.75029    
    1.36700       0.241800E-01    2456.44        4.04968       0.920964       0.243678E-02   0.797149        1.75437    
    1.40000       0.241100E-01    2426.68        4.08071       0.920405       0.141475E-02   0.793394        1.76416    
    1.43400       0.240400E-01    2434.60        4.10414       0.922479       0.177199E-03   0.788296        1.77893    
    1.46700       0.239700E-01    2478.78        4.13656       0.931946      -0.856066E-03   0.787228        1.80550    
    1.50000       0.239100E-01    2483.85        4.13665       0.931956      -0.856784E-03   0.787240        1.80552    
  -0.500000       0.362300E-01    2416.65        4.00000        1.00000        0.00000       0.714286        2.00000    
  -0.466800       0.363200E-01    2416.14        4.00000       0.999999       0.281799E-07   0.714286        2.00000    
  -0.433700       0.364200E-01    2410.32        4.00000        1.00000       0.956197E-06   0.714285        2.00000    
  -0.400500       0.365300E-01    2399.91        4.00000        1.00000      -0.126497E-05   0.714285        2.00000    
  -0.367300       0.366400E-01    2395.86        4.00001        1.00000      -0.193939E-07   0.714287        2.00000    
  -0.334200       0.367600E-01    2388.21        4.00001        1.00000       0.567883E-07   0.714288        2.00000    
  -0.301000       0.369000E-01    2378.72        4.00001        1.00000      -0.107893E-06   0.714289        2.00000    
  -0.267900       0.370600E-01    2370.22        4.00002        1.00000       0.335764E-06   0.714290        2.00000    
  -0.234700       0.372400E-01    2358.98        4.00004        1.00000       0.890117E-07   0.714293        2.00000    
  -0.201600       0.374600E-01    2348.60        4.00003        1.00000       0.219480E-05   0.714291        2.00000    
  -0.168500       0.377200E-01    2329.24        4.00004        1.00000      -0.263917E-06   0.714293        2.00000    
  -0.135300       0.380700E-01    2309.15        4.00012        1.00000      -0.571046E-06   0.714307        2.00000    
  -0.102200       0.385400E-01    2287.01        4.00022       0.999999       0.464713E-05   0.714326        2.00000    
  -0.690900E-01   0.392200E-01    2253.10        4.00044       0.999998       0.194079E-04   0.714367        1.99999    
  -0.359900E-01   0.402900E-01    2211.70        3.99857       0.999998      -0.869794E-04   0.714032        1.99999    
  -0.292100E-02   0.422200E-01    2465.35        4.03770       0.997457       0.417833E-02   0.723941        1.99090    
   0.223200E-01   0.448400E-01    2890.36        4.19527       0.985952       0.216908E-01   0.765621        1.95106    
   0.475500E-01   0.480400E-01    2951.88        4.55419       0.959406       0.578886E-01   0.862882        1.86620    
   0.727300E-01   0.515500E-01    3010.90        5.02398       0.925543       0.982388E-01   0.993028        1.76933    
   0.979100E-01   0.552400E-01    3062.43        5.40852       0.897025       0.125182        1.10474        1.69371    
   0.123100       0.590400E-01    3116.96        5.63622       0.881122       0.138676        1.17119        1.65373    
   0.148200       0.629000E-01    3161.27        5.75295       0.875089       0.145886        1.20187        1.64043    
   0.173400       0.668100E-01    3200.75        5.79006       0.871937       0.150072        1.21345        1.63339    
   0.198600       0.707500E-01    3252.31        5.79826       0.870737       0.152115        1.21668        1.63084    
   0.223700       0.747000E-01    3296.20        5.80108       0.870222       0.153127        1.21748        1.63009    
   0.248900       0.786500E-01    3339.92        5.80193       0.870324       0.153330        1.21799        1.63012    
   0.274000       0.825900E-01    3389.18        5.79678       0.870856       0.153325        1.21660        1.63129    
   0.299200       0.865100E-01    3439.92        5.78567       0.871849       0.153256        1.21334        1.63369    
   0.324300       0.904000E-01    3489.15        5.77017       0.872996       0.153143        1.20859        1.63676    
   0.349500       0.942400E-01    3560.39        5.74721       0.874779       0.153387        1.20252        1.64094    
   0.374600       0.980200E-01    3626.27        5.71737       0.877589       0.154037        1.19522        1.64699    
   0.399800       0.101700        3717.02        5.68244       0.881495       0.154411        1.18491        1.65632    
   0.424900       0.105200        3828.74        5.63954       0.885375       0.154788        1.17165        1.66657    
   0.450100       0.108400        3984.46        5.59562       0.889850       0.155484        1.15944        1.67720    