Title="2-D Euler solver"
Variables="I","J","JACOBIAN","rho","u","v","p","MACH"

Zone I=    71, J=    48, F=POINT
  -0.500000        0.00000        2569.43        4.00000        1.00000        0.00000       0.714286        2.00000    
  -0.466700        0.00000        2550.83        4.00000        1.00000        0.00000       0.714285        2.00000    
  -0.433300        0.00000        2545.42        3.99954       0.999927        0.00000       0.714286        1.99974    
  -0.400000        0.00000        2543.84        4.00062        1.00009        0.00000       0.714289        2.00034    
  -0.366700        0.00000        2530.38        4.00047        1.00007        0.00000       0.714289        2.00025    
  -0.333300        0.00000        2521.87        4.00025        1.00004        0.00000       0.714288        2.00014    
  -0.300000        0.00000        2514.03        3.99879       0.999808        0.00000       0.714288        1.99931    
  -0.266700        0.00000        2500.83        3.99918       0.999870        0.00000       0.714288        1.99953    
  -0.233300        0.00000        2488.38        3.99864       0.999786        0.00000       0.714287        1.99923    
  -0.200000        0.00000        2477.73        3.99704       0.999532        0.00000       0.714292        1.99831    
  -0.166700        0.00000        2456.78        4.00195        1.00029        0.00000       0.714299        2.00106    
  -0.133300        0.00000        2431.87        4.00466        1.00071        0.00000       0.714307        2.00255    
  -0.100000        0.00000        2403.24        4.00025       0.999997        0.00000       0.714333        1.99999    
  -0.666700E-01    0.00000        2351.90        4.00006       0.999913        0.00000       0.714395        1.99969    
  -0.333300E-01    0.00000        2266.60        3.99781       0.999968        0.00000       0.713930        1.99989    
    0.00000        0.00000        2335.37        4.15009       0.973370       0.735910E-01   0.772113        1.91267    
   0.250000E-01   0.441000E-02    2958.72        4.53127       0.910641       0.160637       0.918317        1.73600    
   0.500000E-01   0.882000E-02    3086.92        4.94453       0.870079       0.153482        1.05742        1.61468    
   0.750000E-01   0.132300E-01    3174.02        5.25462       0.852883       0.150448        1.14711        1.56656    
   0.100000       0.176400E-01    3242.59        5.45915       0.849917       0.149925        1.19606        1.55830    
   0.125000       0.220500E-01    3306.60        5.58388       0.854823       0.150791        1.21690        1.57147    
   0.150000       0.264600E-01    3354.06        5.64579       0.860583       0.151807        1.22259        1.58710    
   0.175000       0.308700E-01    3410.24        5.68355       0.866826       0.152908        1.22213        1.60425    
   0.200000       0.352800E-01    3450.30        5.70131       0.870851       0.153618        1.22038        1.61538    
   0.225000       0.396900E-01    3508.24        5.71528       0.873833       0.154144        1.21921        1.62367    
   0.250000       0.441000E-01    3550.64        5.72078       0.874892       0.154331        1.21895        1.62660    
   0.275000       0.485100E-01    3607.15        5.72850       0.875853       0.154501        1.21925        1.62928    
   0.300000       0.529200E-01    3655.33        5.72954       0.875696       0.154473        1.21973        1.62881    
   0.325000       0.573300E-01    3722.16        5.73429       0.876135       0.154550        1.22011        1.63005    
   0.350000       0.617400E-01    3780.62        5.73270       0.875753       0.154483        1.22033        1.62897    
   0.375000       0.661500E-01    3867.04        5.73620       0.876215       0.154564        1.22041        1.63027    
   0.400000       0.705600E-01    3953.49        5.73368       0.875813       0.154493        1.22045        1.62914    
   0.425000       0.749700E-01    4085.31        5.73784       0.876351       0.154588        1.22055        1.63066    
   0.450000       0.793800E-01    4244.03        5.73702       0.875934       0.154515        1.22098        1.62948    
   0.475000       0.837900E-01    4572.81        5.73302       0.874137       0.154198        1.22278        1.62438    
   0.500000       0.882000E-01    5673.76        4.96475       0.935680        0.00000       0.983772        1.77650    
   0.525000       0.837900E-01    4576.51        3.87826        1.00825      -0.177855       0.691192        2.04963    
   0.550000       0.793800E-01    4261.46        3.21702        1.06565      -0.187981       0.525817        2.26211    
   0.575000       0.749700E-01    4076.26        2.86877        1.08763      -0.191857       0.452480        2.35027    
   0.600000       0.705600E-01    3945.01        2.66609        1.08872      -0.192050       0.420692        2.35212    
   0.625000       0.661500E-01    3857.07        2.55476        1.08302      -0.191045       0.407804        2.32635    
   0.650000       0.617400E-01    3778.21        2.48287        1.07347      -0.189360       0.403445        2.28542    
   0.675000       0.573300E-01    3719.82        2.44513        1.06611      -0.188061       0.402524        2.25500    
   0.700000       0.529200E-01    3653.08        2.41727        1.05929      -0.186859       0.402684        2.22734    
   0.725000       0.485100E-01    3603.33        2.40213        1.05522      -0.186142       0.402903        2.21123    
   0.750000       0.441000E-01    3548.52        2.39013        1.05228      -0.185622       0.402862        2.19965    
   0.775000       0.396900E-01    3507.34        2.39080        1.05274      -0.185703       0.402550        2.20177    
   0.800000       0.352800E-01    3449.43        2.38621        1.05226      -0.185618       0.402086        2.19992    
   0.825000       0.308700E-01    3409.39        2.38614        1.05289      -0.185730       0.401588        2.20258    
   0.850000       0.264600E-01    3351.84        2.38169        1.05244      -0.185651       0.401139        2.20081    
   0.875000       0.220500E-01    3296.19        2.37502        1.05131      -0.185451       0.400782        2.19634    
   0.900000       0.176400E-01    3241.12        2.37273        1.05106      -0.185407       0.400521        2.19547    
   0.925000       0.132300E-01    3176.11        2.37335        1.05138      -0.185464       0.400346        2.19692    
   0.950000       0.882000E-02    3089.94        2.37560        1.05198      -0.185570       0.400243        2.19950    
   0.975000       0.441000E-02    2959.31        2.37902        1.05197      -0.185568       0.400724        2.19974    
    1.00000        0.00000        2359.73        2.57153        1.03804      -0.789266E-01   0.440900        2.12484    
    1.03300        0.00000        2257.15        2.92230       0.985181        0.00000       0.540613        1.93585    
    1.06700        0.00000        2339.40        3.24632       0.952181        0.00000       0.627758        1.83002    
    1.10000        0.00000        2425.21        3.46475       0.940708        0.00000       0.679858        1.79481    
    1.13300        0.00000        2420.99        3.59793       0.940450        0.00000       0.705911        1.79441    
    1.16700        0.00000        2444.78        3.68223       0.947064        0.00000       0.715758        1.81546    
    1.20000        0.00000        2500.25        3.75336       0.958544        0.00000       0.717792        1.85250    
    1.23300        0.00000        2477.24        3.74876       0.958058        0.00000       0.717380        1.85096    
    1.26700        0.00000        2489.64        3.75300       0.959474        0.00000       0.716728        1.85559    
    1.30000        0.00000        2536.88        3.75838       0.960718        0.00000       0.716476        1.85965    
    1.33300        0.00000        2510.58        3.79580       0.967443        0.00000       0.716591        1.88182    
    1.36700        0.00000        2519.05        3.79224       0.966580        0.00000       0.716850        1.87892    
    1.40000        0.00000        2566.97        3.78578       0.965268        0.00000       0.717046        1.87451    
    1.43300        0.00000        2534.02        3.77700       0.963796        0.00000       0.716998        1.86954    
    1.46700        0.00000        2539.41        3.77077       0.963168        0.00000       0.716599        1.86730    
    1.50000        0.00000        2628.73        3.77057       0.963202        0.00000       0.716541        1.86740    
  -0.500000       0.118300E-01    2511.92        4.00000        1.00000        0.00000       0.714286        2.00000    
  -0.466700       0.118700E-01    2505.62        4.00000        1.00000      -0.511425E-06   0.714285        2.00000    
  -0.433400       0.119000E-01    2502.07        4.00000        1.00000       0.859359E-06   0.714286        2.00000    
  -0.400200       0.119300E-01    2494.80        3.99986       0.999975       0.137386E-05   0.714289        1.99991    
  -0.366900       0.119700E-01    2483.82        4.00021        1.00003       0.348835E-06   0.714289        2.00011    
  -0.333600       0.120100E-01    2475.60        4.00016        1.00002      -0.496126E-06   0.714288        2.00008    
  -0.300300       0.120600E-01    2470.13        4.00009        1.00001       0.273664E-07   0.714288        2.00005    
  -0.267100       0.121100E-01    2459.00        3.99961       0.999936       0.118305E-05   0.714288        1.99977    
  -0.233800       0.121700E-01    2443.26        3.99973       0.999957      -0.502774E-06   0.714287        1.99985    
  -0.200500       0.122400E-01    2433.01        3.99958       0.999928      -0.525901E-07   0.714292        1.99974    
  -0.167300       0.123300E-01    2414.37        3.99907       0.999843       0.200049E-05   0.714299        1.99944    
  -0.134000       0.124500E-01    2388.50        4.00074        1.00010       0.714428E-06   0.714307        2.00035    
  -0.100700       0.126100E-01    2360.27        4.00178        1.00024       0.161603E-05   0.714333        2.00085    
  -0.674600E-01   0.128600E-01    2318.59        4.00067        1.00001       0.862149E-05   0.714395        2.00003    
  -0.342100E-01   0.133000E-01    2246.82        3.99774       0.999958      -0.252594E-04   0.713930        1.99985    
  -0.958600E-03   0.144000E-01    2403.67        4.22272       0.984745       0.229291E-01   0.772113        1.94685    
   0.241200E-01   0.178100E-01    2940.21        4.73028       0.941730       0.789916E-01   0.918317        1.81272    
   0.491900E-01   0.217200E-01    3042.24        5.17372       0.901502       0.119427        1.05742        1.70004    
   0.742500E-01   0.258000E-01    3119.15        5.46033       0.878027       0.132113        1.14711        1.63724    
   0.993100E-01   0.299600E-01    3180.03        5.62831       0.867148       0.140980        1.19606        1.61067    
   0.124400       0.341600E-01    3238.45        5.71221       0.864215       0.146822        1.21690        1.60513    
   0.149400       0.383900E-01    3287.93        5.75003       0.865422       0.150419        1.22259        1.60998    
   0.174500       0.426300E-01    3336.88        5.76307       0.867480       0.152349        1.22213        1.61644    
   0.199500       0.468900E-01    3383.08        5.77043       0.869739       0.153325        1.22038        1.62303    
   0.224600       0.511400E-01    3430.62        5.77445       0.871163       0.153701        1.21921        1.62708    
   0.249600       0.554000E-01    3479.48        5.77956       0.872132       0.153842        1.21895        1.62977    
   0.274700       0.596600E-01    3528.25        5.78275       0.872419       0.153850        1.21925        1.63054    
   0.299700       0.639100E-01    3583.23        5.78661       0.872667       0.153879        1.21973        1.63123    
   0.324800       0.681500E-01    3641.60        5.78775       0.872573       0.153874        1.22011        1.63096    
   0.349800       0.723800E-01    3707.07        5.78967       0.872699       0.153918        1.22033        1.63132    
   0.374900       0.765800E-01    3783.88        5.78921       0.872577       0.153916        1.22041        1.63099    
   0.399900       0.807500E-01    3877.05        5.79053       0.872733       0.153954        1.22045        1.63144    
   0.425000       0.848600E-01    3996.77        5.79025       0.872619       0.153941        1.22055        1.63112    
   0.450000       0.888800E-01    4169.21        5.79376       0.872824       0.154008        1.22098        1.63172    
   0.475100       0.926500E-01    4464.55        5.80249       0.872864       0.154167        1.22278        1.63187    
   0.500100       0.956000E-01    5150.93        4.89355       0.920189       0.925756E-01   0.983772        1.74327    
   0.525200       0.926200E-01    4444.45        3.75278       0.983985      -0.315332E-01   0.691192        1.93876    
   0.550200       0.888300E-01    4167.50        3.09742        1.03431      -0.122455       0.525817        2.13645    
   0.575300       0.848200E-01    3988.64        2.79382        1.06054      -0.146653       0.452480        2.24842    
   0.600400       0.807100E-01    3876.55        2.64213        1.06846      -0.163102       0.420692        2.28923    
   0.625400       0.765400E-01    3785.01        2.56335        1.06751      -0.173569       0.407804        2.29167    
   0.650500       0.723300E-01    3708.05        2.52551        1.06415      -0.179826       0.403445        2.28211    
   0.675500       0.681000E-01    3642.51        2.50392        1.05994      -0.183077       0.402524        2.26733    
   0.700600       0.638600E-01    3584.08        2.49344        1.05693      -0.184638       0.402684        2.25646    
   0.725600       0.596100E-01    3530.60        2.48498        1.05447      -0.185158       0.402903        2.24712    
   0.750700       0.553500E-01    3480.23        2.47949        1.05314      -0.185277       0.402862        2.24204    
   0.775700       0.510900E-01    3430.33        2.47427        1.05229      -0.185215       0.402550        2.23877    
   0.800800       0.468400E-01    3382.81        2.47297        1.05257      -0.185272       0.402086        2.24008    
   0.825800       0.425800E-01    3336.63        2.47003        1.05255      -0.185274       0.401588        2.24009    
   0.850900       0.383400E-01    3282.62        2.46888        1.05286      -0.185360       0.401139        2.24149    
   0.876000       0.341100E-01    3237.68        2.46662        1.05279      -0.185399       0.400782        2.24133    
   0.901000       0.299100E-01    3182.90        2.46393        1.05248      -0.185406       0.400521        2.24020    
   0.926100       0.257400E-01    3118.54        2.46301        1.05243      -0.185454       0.400346        2.24019    
   0.951100       0.216700E-01    3041.96        2.46340        1.05256      -0.185522       0.400243        2.24096    
   0.976200       0.177600E-01    2953.47        2.46827        1.05283      -0.185575       0.400724        2.24239    
    1.00100       0.143700E-01    2422.94        2.63744        1.04082      -0.153982       0.440900        2.17489    
    1.03400       0.132900E-01    2229.53        3.04898        1.00885      -0.812350E-01   0.540613        2.03143    
    1.06800       0.128600E-01    2301.50        3.37466       0.978137      -0.370796E-01   0.627758        1.91808    
    1.10100       0.126100E-01    2380.22        3.57036       0.961849      -0.201575E-01   0.679858        1.86331    
    1.13400       0.124500E-01    2409.93        3.67584       0.955750      -0.995179E-02   0.705912        1.84335    
    1.16700       0.123300E-01    2397.35        3.72489       0.955245      -0.430768E-02   0.715758        1.84174    
    1.20100       0.122400E-01    2414.88        3.74872       0.957678      -0.154350E-02   0.717793        1.84969    
    1.23400       0.121700E-01    2465.27        3.76848       0.961709      -0.395083E-03   0.717381        1.86290    
    1.26700       0.121100E-01    2477.59        3.76504       0.961696      -0.448600E-04   0.716730        1.86286    
    1.30000       0.120600E-01    2451.66        3.76634       0.962179      -0.412638E-04   0.716479        1.86445    
    1.33400       0.120100E-01    2460.77        3.76894       0.962555      -0.876060E-04   0.716598        1.86566    
    1.36700       0.119700E-01    2506.45        3.78226       0.964757      -0.918444E-04   0.716862        1.87289    
    1.40000       0.119300E-01    2513.73        3.78152       0.964470      -0.821720E-04   0.717067        1.87188    
    1.43300       0.119000E-01    2483.33        3.77901       0.964121      -0.597397E-04   0.717033        1.87063    
    1.46700       0.118700E-01    2490.68        3.77475       0.963829      -0.363288E-04   0.716655        1.86950    
    1.50000       0.118300E-01    2573.75        3.77455       0.963859      -0.366176E-04   0.716599        1.86958    
  -0.500000       0.239100E-01    2468.89        4.00000        1.00000        0.00000       0.714286        2.00000    
  -0.466800       0.239700E-01    2463.82        4.00000        1.00000       0.877104E-06   0.714285        2.00000    
  -0.433600       0.240400E-01    2453.05        4.00000        1.00000      -0.133184E-05   0.714285        2.00000    
  -0.400300       0.241100E-01    2445.07        4.00001        1.00000      -0.942622E-06   0.714287        2.00000    
  -0.367100       0.241800E-01    2441.78        3.99996       0.999991       0.851737E-06   0.714288        1.99997    
  -0.333900       0.242600E-01    2433.83        4.00007        1.00001       0.666692E-06   0.714287        2.00003    
  -0.300700       0.243500E-01    2424.95        4.00006        1.00001       0.149143E-06   0.714288        2.00003    
  -0.267500       0.244600E-01    2414.20        4.00004        1.00000       0.525346E-06   0.714289        2.00001    
  -0.234300       0.245800E-01    2402.57        3.99988       0.999978       0.121971E-05   0.714289        1.99992    
  -0.201100       0.247200E-01    2384.51        3.99994       0.999986      -0.145614E-05   0.714290        1.99995    
  -0.167800       0.249100E-01    2368.35        3.99992       0.999977      -0.110695E-05   0.714298        1.99992    
  -0.134600       0.251400E-01    2353.88        3.99979       0.999949       0.259394E-05   0.714307        1.99982    
  -0.101500       0.254600E-01    2324.07        4.00044        1.00003       0.355143E-05   0.714327        2.00012    
  -0.682700E-01   0.259300E-01    2282.27        4.00100        1.00008       0.128249E-04   0.714375        2.00028    
  -0.350900E-01   0.267300E-01    2228.66        3.99856       0.999997      -0.420302E-04   0.714032        1.99999    
  -0.193300E-02   0.283800E-01    2451.89        4.09137       0.993706       0.101898E-01   0.737892        1.97767    
   0.232300E-01   0.312800E-01    2916.52        4.41006       0.969804       0.439566E-01   0.823908        1.89823    
   0.483800E-01   0.347900E-01    2996.12        4.89526       0.932601       0.892999E-01   0.960257        1.78775    
   0.735000E-01   0.385700E-01    3064.84        5.27451       0.902741       0.119655        1.07252        1.70674    
   0.986100E-01   0.424900E-01    3124.65        5.51522       0.884222       0.135448        1.14477        1.65942    
   0.123700       0.464900E-01    3176.64        5.65518       0.874392       0.144779        1.18586        1.63577    
   0.148800       0.505400E-01    3225.43        5.72725       0.870217       0.149759        1.20588        1.62638    
   0.173900       0.546100E-01    3271.12        5.76178       0.869106       0.152110        1.21428        1.62435    
   0.199000       0.587100E-01    3319.08        5.77680       0.869121       0.153015        1.21732        1.62475    
   0.224100       0.628100E-01    3361.08        5.78470       0.869575       0.153294        1.21837        1.62607    
   0.249200       0.669100E-01    3410.36        5.78900       0.869911       0.153330        1.21887        1.62696    
   0.274300       0.710200E-01    3457.76        5.79243       0.870159       0.153349        1.21931        1.62761    
   0.299400       0.751000E-01    3513.10        5.79440       0.870221       0.153375        1.21970        1.62774    
   0.324500       0.791700E-01    3568.23        5.79621       0.870294       0.153437        1.22003        1.62793    
   0.349600       0.832100E-01    3637.09        5.79669       0.870279       0.153481        1.22020        1.62787    
   0.374700       0.872000E-01    3708.30        5.79742       0.870349       0.153532        1.22032        1.62803    
   0.399800       0.911200E-01    3800.61        5.79735       0.870356       0.153546        1.22038        1.62800    
   0.424900       0.949300E-01    3914.63        5.79825       0.870463       0.153580        1.22052        1.62824    
   0.450000       0.985300E-01    4076.73        5.79898       0.870512       0.153618        1.22077        1.62828    
   0.475200       0.101700        4312.58        5.80316       0.870702       0.153907        1.22165        1.62871    
   0.500300       0.103700        4714.87        5.26548       0.903004       0.116518        1.07422        1.70367    
   0.525400       0.101700        4325.39        4.22888       0.957727       0.312261E-01   0.809578        1.85094    
   0.550500       0.984600E-01    4078.22        3.41705        1.00459      -0.599448E-01   0.607204        2.01769    
   0.575600       0.948500E-01    3911.95        3.00522        1.03298      -0.116048       0.507113        2.13863    
   0.600700       0.910400E-01    3794.72        2.80131        1.04641      -0.142706       0.459685        2.20338    
   0.625800       0.871100E-01    3708.48        2.68574        1.05182      -0.160310       0.434623        2.23533    
   0.650900       0.831200E-01    3632.78        2.61771        1.05346      -0.171293       0.420996        2.24928    
   0.676000       0.790800E-01    3568.10        2.57787        1.05378      -0.177733       0.413442        2.25527    
   0.701100       0.750100E-01    3510.37        2.55282        1.05345      -0.181209       0.409107        2.25669    
   0.726200       0.709200E-01    3456.57        2.53759        1.05323      -0.182989       0.406494        2.25736    
   0.751300       0.668200E-01    3402.46        2.52707        1.05298      -0.183837       0.404792        2.25719    
   0.776500       0.627100E-01    3353.30        2.52017        1.05293      -0.184268       0.403593        2.25750    
   0.801600       0.586100E-01    3315.72        2.51511        1.05291      -0.184527       0.402695        2.25782    
   0.826700       0.545100E-01    3270.05        2.51252        1.05318      -0.184777       0.402006        2.25922    
   0.851800       0.504300E-01    3224.51        2.51015        1.05329      -0.184981       0.401473        2.25996    
   0.876900       0.463900E-01    3176.54        2.50894        1.05347      -0.185186       0.401074        2.26099    
   0.902000       0.423900E-01    3117.24        2.50773        1.05351      -0.185342       0.400774        2.26143    
   0.927200       0.384700E-01    3059.00        2.50670        1.05347      -0.185453       0.400550        2.26156    
   0.952300       0.347000E-01    2998.06        2.50666        1.05353      -0.185538       0.400399        2.26213    
   0.977400       0.312000E-01    2892.96        2.50929        1.05369      -0.185563       0.400552        2.26322    
    1.00300       0.283300E-01    2437.85        2.57132        1.04982      -0.173390       0.414734        2.23918    
    1.03600       0.267100E-01    2238.90        2.83531        1.03111      -0.126284       0.478262        2.13768    
    1.06900       0.259200E-01    2298.45        3.19936        1.00446      -0.704242E-01   0.567844        2.02000    
    1.10200       0.254500E-01    2336.07        3.46049       0.983382      -0.359602E-01   0.635914        1.94007    
    1.13500       0.251400E-01    2364.96        3.61660       0.971247      -0.178292E-01   0.677085        1.89744    
    1.16800       0.249000E-01    2385.81        3.70241       0.965390      -0.785313E-02   0.699192        1.87757    
    1.20100       0.247200E-01    2367.72        3.74475       0.963266      -0.306226E-02   0.709378        1.87050    
    1.23500       0.245800E-01    2381.97        3.76594       0.963094      -0.110242E-02   0.713564        1.86993    
    1.26800       0.244600E-01    2429.74        3.77948       0.963909      -0.429580E-03   0.715280        1.87262    
    1.30100       0.243500E-01    2439.56        3.78204       0.963637      -0.282835E-03   0.716056        1.87171    
    1.33400       0.242600E-01    2448.73        3.78458       0.963657      -0.257113E-03   0.716533        1.87176    
    1.36700       0.241800E-01    2456.44        3.78653       0.963729      -0.227103E-03   0.716854        1.87196    
    1.40000       0.241100E-01    2426.68        3.79111       0.964484      -0.195473E-03   0.716985        1.87439    
    1.43400       0.240400E-01    2434.60        3.79032       0.964487      -0.130988E-03   0.716914        1.87429    
    1.46700       0.239700E-01    2478.78        3.78826       0.964553      -0.632273E-04   0.716584        1.87434    
    1.50000       0.239100E-01    2483.85        3.78805       0.964582      -0.637310E-04   0.716529        1.87442    
  -0.500000       0.362300E-01    2416.65        4.00000        1.00000        0.00000       0.714286        2.00000    
  -0.466800       0.363200E-01    2416.14        4.00000        1.00000       0.860479E-07   0.714286        2.00000    
  -0.433700       0.364200E-01    2410.32        4.00000        1.00000       0.948210E-06   0.714286        2.00000    
  -0.400500       0.365300E-01    2399.91        4.00000        1.00000      -0.112147E-05   0.714285        2.00000    
  -0.367300       0.366400E-01    2395.86        4.00001        1.00000      -0.209858E-06   0.714288        2.00000    
  -0.334200       0.367600E-01    2388.21        4.00000       0.999997       0.310333E-06   0.714288        1.99999    
  -0.301000       0.369000E-01    2378.72        4.00003        1.00000       0.249637E-06   0.714288        2.00001    
  -0.267900       0.370600E-01    2370.22        4.00004        1.00000       0.591797E-06   0.714289        2.00001    
  -0.234700       0.372400E-01    2358.98        4.00004        1.00000       0.564703E-06   0.714291        2.00000    
  -0.201600       0.374600E-01    2348.60        3.99998       0.999993       0.184047E-05   0.714291        1.99997    
  -0.168500       0.377200E-01    2329.24        4.00001       0.999995      -0.376248E-06   0.714293        1.99998    
  -0.135300       0.380700E-01    2309.15        4.00006       0.999992      -0.306092E-06   0.714306        1.99997    
  -0.102200       0.385400E-01    2287.01        4.00011       0.999984       0.366321E-05   0.714324        1.99994    
  -0.690900E-01   0.392200E-01    2253.10        4.00043        1.00001       0.123523E-04   0.714352        2.00003    
  -0.359900E-01   0.402900E-01    2211.70        3.99933        1.00002      -0.417013E-04   0.714139        2.00009    
  -0.292100E-02   0.422200E-01    2465.35        4.03818       0.997446       0.422872E-02   0.724039        1.99086    
   0.223200E-01   0.448400E-01    2890.36        4.20007       0.985597       0.222205E-01   0.766905        1.94986    
   0.475500E-01   0.480400E-01    2951.88        4.56187       0.958785       0.586867E-01   0.865091        1.86427    
   0.727300E-01   0.515500E-01    3010.90        4.99553       0.926910       0.964908E-01   0.986168        1.77268    
   0.979100E-01   0.552400E-01    3062.43        5.33212       0.901936       0.122191        1.08357        1.70641    
   0.123100       0.590400E-01    3116.96        5.55109       0.885781       0.137221        1.14804        1.66580    
   0.148200       0.629000E-01    3161.27        5.67873       0.876744       0.145672        1.18552        1.64397    
   0.173400       0.668100E-01    3200.75        5.74516       0.872374       0.149963        1.20470        1.63371    
   0.198600       0.707500E-01    3252.31        5.77671       0.870607       0.151924        1.21345        1.62967    
   0.223700       0.747000E-01    3296.20        5.79044       0.870012       0.152718        1.21707        1.62836    
   0.248900       0.786500E-01    3339.92        5.79660       0.869920       0.153023        1.21849        1.62820    
   0.274000       0.825900E-01    3389.18        5.79951       0.869926       0.153158        1.21913        1.62824    
   0.299200       0.865100E-01    3439.92        5.80131       0.869951       0.153252        1.21952        1.62831    
   0.324300       0.904000E-01    3489.15        5.80251       0.869936       0.153332        1.21984        1.62826    
   0.349500       0.942400E-01    3560.39        5.80332       0.869938       0.153398        1.22006        1.62825    
   0.374600       0.980200E-01    3626.27        5.80379       0.869924       0.153440        1.22025        1.62818    
   0.399800       0.101700        3717.02        5.80416       0.869955       0.153466        1.22037        1.62821    
   0.424900       0.105200        3828.74        5.80451       0.869979       0.153486        1.22053        1.62820    
   0.450100       0.108400        3984.46        5.80523       0.870055       0.153534        1.22074        1.62832    