Title="2-D Euler solver"
Variables="I","J","JACOBIAN","rho","u","v","p","MACH"

Zone I=    71, J=    48, F=POINT
  -0.500000        0.00000        2569.43        4.00000        1.00000        0.00000       0.714286        2.00000    
  -0.466700        0.00000        2550.83        4.00000        1.00000        0.00000       0.714285        2.00000    
  -0.433300        0.00000        2545.42        3.99953       0.999927        0.00000       0.714286        1.99974    
  -0.400000        0.00000        2543.84        4.00092        1.00014        0.00000       0.714288        2.00051    
  -0.366700        0.00000        2530.38        4.00001        1.00000        0.00000       0.714288        2.00000    
  -0.333300        0.00000        2521.87        4.00002        1.00000        0.00000       0.714287        2.00000    
  -0.300000        0.00000        2514.03        3.99868       0.999791        0.00000       0.714289        1.99925    
  -0.266700        0.00000        2500.83        4.00003        1.00000        0.00000       0.714289        2.00001    
  -0.233300        0.00000        2488.38        3.99906       0.999851        0.00000       0.714288        1.99946    
  -0.200000        0.00000        2477.73        3.99787       0.999659        0.00000       0.714295        1.99877    
  -0.166700        0.00000        2456.78        4.00381        1.00058        0.00000       0.714301        2.00209    
  -0.133300        0.00000        2431.87        4.00310        1.00046        0.00000       0.714311        2.00167    
  -0.100000        0.00000        2403.24        3.99752       0.999563        0.00000       0.714342        1.99843    
  -0.666700E-01    0.00000        2351.90        4.00074        1.00000        0.00000       0.714418        2.00000    
  -0.333300E-01    0.00000        2266.60        3.99693       0.999994        0.00000       0.713744        1.99998    
    0.00000        0.00000        2335.37        4.22120       0.969114       0.732692E-01   0.790224        1.89842    
   0.250000E-01   0.441000E-02    2958.72        4.67697       0.908567       0.160271       0.949018        1.73098    
   0.500000E-01   0.882000E-02    3086.92        5.08653       0.884554       0.156035        1.06364        1.66008    
   0.750000E-01   0.132300E-01    3174.02        5.37294       0.875249       0.154394        1.13619        1.63343    
   0.100000       0.176400E-01    3242.59        5.55135       0.872573       0.153922        1.17765        1.62586    
   0.125000       0.220500E-01    3306.60        5.65718       0.873159       0.154025        1.19929        1.62750    
   0.150000       0.264600E-01    3354.06        5.70396       0.872476       0.153905        1.21024        1.62553    
   0.175000       0.308700E-01    3410.24        5.73736       0.873730       0.154126        1.21560        1.62902    
   0.200000       0.352800E-01    3450.30        5.74683       0.873403       0.154068        1.21818        1.62803    
   0.225000       0.396900E-01    3508.24        5.75676       0.874097       0.154191        1.21939        1.62992    
   0.250000       0.441000E-01    3550.64        5.75559       0.873597       0.154103        1.21997        1.62844    
   0.275000       0.485100E-01    3607.15        5.76089       0.874260       0.154220        1.22025        1.63024    
   0.300000       0.529200E-01    3655.33        5.75698       0.873669       0.154115        1.22040        1.62848    
   0.325000       0.573300E-01    3722.16        5.76157       0.874368       0.154238        1.22050        1.63037    
   0.350000       0.617400E-01    3780.62        5.75678       0.873705       0.154122        1.22060        1.62839    
   0.375000       0.661500E-01    3867.04        5.76162       0.874477       0.154258        1.22068        1.63046    
   0.400000       0.705600E-01    3953.49        5.75634       0.873750       0.154129        1.22083        1.62825    
   0.425000       0.749700E-01    4085.31        5.76212       0.874645       0.154287        1.22104        1.63060    
   0.450000       0.793800E-01    4244.03        5.75824       0.873977       0.154170        1.22162        1.62842    
   0.475000       0.837900E-01    4572.81        5.75766       0.872923       0.153984        1.22395        1.62482    
   0.500000       0.882000E-01    5673.76        4.81833       0.943029        0.00000       0.939074        1.80534    
   0.525000       0.837900E-01    4576.51        3.62429       0.989676      -0.174579       0.664268        1.98391    
   0.550000       0.793800E-01    4261.46        3.07884        1.01092      -0.178326       0.546748        2.05876    
   0.575000       0.749700E-01    4076.26        2.77136        1.01768      -0.179518       0.487227        2.08296    
   0.600000       0.705600E-01    3945.01        2.59364        1.02039      -0.179996       0.454160        2.09269    
   0.625000       0.661500E-01    3857.07        2.49701        1.02396      -0.180626       0.434729        2.10607    
   0.650000       0.617400E-01    3778.21        2.42910        1.02386      -0.180609       0.422976        2.10570    
   0.675000       0.573300E-01    3719.82        2.39510        1.02572      -0.180937       0.415729        2.11288    
   0.700000       0.529200E-01    3653.08        2.36667        1.02504      -0.180817       0.411209        2.11042    
   0.725000       0.485100E-01    3603.33        2.35394        1.02601      -0.180987       0.408292        2.11423    
   0.750000       0.441000E-01    3548.52        2.34222        1.02578      -0.180948       0.406365        2.11350    
   0.775000       0.396900E-01    3507.34        2.34409        1.02813      -0.181362       0.405046        2.12262    
   0.800000       0.352800E-01    3449.43        2.33598        1.02738      -0.181230       0.404114        2.11985    
   0.825000       0.308700E-01    3409.39        2.33702        1.02859      -0.181444       0.403429        2.12462    
   0.850000       0.264600E-01    3351.84        2.33171        1.02796      -0.181332       0.402899        2.12229    
   0.875000       0.220500E-01    3296.19        2.32762        1.02747      -0.181245       0.402478        2.12052    
   0.900000       0.176400E-01    3241.12        2.32874        1.02819      -0.181373       0.402129        2.12345    
   0.925000       0.132300E-01    3176.11        2.33038        1.02894      -0.181505       0.401837        2.12652    
   0.950000       0.882000E-02    3089.94        2.33291        1.02981      -0.181658       0.401597        2.13010    
   0.975000       0.441000E-02    2959.31        2.33905        1.03034      -0.181752       0.402157        2.13252    
    1.00000        0.00000        2359.73        2.58005        1.01176      -0.769290E-01   0.455220        2.04160    
    1.03300        0.00000        2257.15        2.96250       0.964780        0.00000       0.561442        1.87301    
    1.06700        0.00000        2339.40        3.26499       0.950880        0.00000       0.630936        1.82814    
    1.10000        0.00000        2425.21        3.44557       0.945101        0.00000       0.671080        1.80991    
    1.13300        0.00000        2420.99        3.55158       0.943570        0.00000       0.693125        1.80516    
    1.16700        0.00000        2444.78        3.61862       0.945302        0.00000       0.704494        1.81067    
    1.20000        0.00000        2500.25        3.67234       0.950049        0.00000       0.710233        1.82580    
    1.23300        0.00000        2477.24        3.64469       0.941623        0.00000       0.713200        1.79903    
    1.26700        0.00000        2489.64        3.66367       0.943920        0.00000       0.714677        1.80624    
    1.30000        0.00000        2536.88        3.66755       0.944023        0.00000       0.715378        1.80650    
    1.33300        0.00000        2510.58        3.69951       0.950048        0.00000       0.715646        1.82560    
    1.36700        0.00000        2519.05        3.67374       0.945110        0.00000       0.715658        1.80975    
    1.40000        0.00000        2566.97        3.67341       0.945309        0.00000       0.715511        1.81024    
    1.43300        0.00000        2534.02        3.66835       0.944814        0.00000       0.715164        1.80849    
    1.46700        0.00000        2539.41        3.66648       0.945207        0.00000       0.714594        1.80950    
    1.50000        0.00000        2628.73        3.66613       0.945265        0.00000       0.714496        1.80965    
  -0.500000       0.118300E-01    2511.92        4.00000        1.00000        0.00000       0.714286        2.00000    
  -0.466700       0.118700E-01    2505.62        4.00000        1.00000      -0.733831E-06   0.714285        2.00000    
  -0.433400       0.119000E-01    2502.07        4.00000        1.00000       0.127495E-05   0.714286        2.00000    
  -0.400200       0.119300E-01    2494.80        4.00001       0.999999       0.175350E-05   0.714288        2.00000    
  -0.366900       0.119700E-01    2483.82        4.00001        1.00000       0.101245E-06   0.714288        2.00000    
  -0.333600       0.120100E-01    2475.60        4.00001        1.00000      -0.920350E-06   0.714287        2.00000    
  -0.300300       0.120600E-01    2470.13        4.00002        1.00000      -0.613411E-07   0.714289        2.00000    
  -0.267100       0.121100E-01    2459.00        4.00002        1.00000       0.146134E-05   0.714289        2.00000    
  -0.233800       0.121700E-01    2443.26        4.00002        1.00000      -0.100847E-05   0.714288        2.00000    
  -0.200500       0.122400E-01    2433.01        4.00005       0.999999       0.110893E-06   0.714295        2.00000    
  -0.167300       0.123300E-01    2414.37        4.00008       0.999999       0.303617E-05   0.714301        2.00000    
  -0.134000       0.124500E-01    2388.50        4.00014        1.00000       0.322278E-06   0.714311        2.00000    
  -0.100700       0.126100E-01    2360.27        4.00034        1.00000       0.156778E-05   0.714342        2.00001    
  -0.674600E-01   0.128600E-01    2318.59        4.00083        1.00001       0.121927E-04   0.714418        2.00005    
  -0.342100E-01   0.133000E-01    2246.82        3.99674       0.999965      -0.446816E-04   0.713744        1.99987    
  -0.958600E-03   0.144000E-01    2403.67        4.29464       0.980365       0.294807E-01   0.790224        1.93245    
   0.241200E-01   0.178100E-01    2940.21        4.86481       0.936933       0.813021E-01   0.949018        1.79957    
   0.491900E-01   0.217200E-01    3042.24        5.27461       0.908596       0.113500        1.06364        1.72332    
   0.742500E-01   0.258000E-01    3119.15        5.52966       0.891170       0.132323        1.13619        1.67979    
   0.993100E-01   0.299600E-01    3180.03        5.67313       0.881212       0.142739        1.17765        1.65593    
   0.124400       0.341600E-01    3238.45        5.74730       0.875994       0.148204        1.19929        1.64375    
   0.149400       0.383900E-01    3287.93        5.78444       0.873342       0.150987        1.21024        1.63761    
   0.174500       0.426300E-01    3336.88        5.80236       0.872047       0.152367        1.21560        1.63460    
   0.199500       0.468900E-01    3383.08        5.81075       0.871431       0.153035        1.21818        1.63314    
   0.224600       0.511400E-01    3430.62        5.81447       0.871154       0.153355        1.21939        1.63246    
   0.249600       0.554000E-01    3479.48        5.81604       0.871029       0.153504        1.21997        1.63211    
   0.274700       0.596600E-01    3528.25        5.81661       0.870986       0.153576        1.22025        1.63195    
   0.299700       0.639100E-01    3583.23        5.81669       0.870972       0.153608        1.22040        1.63184    
   0.324800       0.681500E-01    3641.60        5.81657       0.870981       0.153625        1.22050        1.63178    
   0.349800       0.723800E-01    3707.07        5.81638       0.870992       0.153634        1.22060        1.63171    
   0.374900       0.765800E-01    3783.88        5.81614       0.871019       0.153642        1.22068        1.63167    
   0.399900       0.807500E-01    3877.05        5.81599       0.871045       0.153648        1.22083        1.63160    
   0.425000       0.848600E-01    3996.77        5.81610       0.871109       0.153667        1.22104        1.63160    
   0.450000       0.888800E-01    4169.21        5.81771       0.871235       0.153728        1.22162        1.63168    
   0.475100       0.926500E-01    4464.55        5.82771       0.871679       0.153983        1.22395        1.63242    
   0.500100       0.956000E-01    5150.93        4.74564       0.928534       0.789570E-01   0.939074        1.77050    
   0.525200       0.926200E-01    4444.45        3.56490       0.975660      -0.291856E-01   0.664268        1.91109    
   0.550200       0.888300E-01    4167.50        3.05773       0.999896      -0.889178E-01   0.546748        2.00635    
   0.575300       0.848200E-01    3988.64        2.79876        1.01315      -0.124374       0.487227        2.06763    
   0.600400       0.807100E-01    3876.55        2.65477        1.02089      -0.146174       0.454160        2.10732    
   0.625400       0.765400E-01    3785.01        2.57076        1.02568      -0.159809       0.434729        2.13343    
   0.650500       0.723300E-01    3708.05        2.52043        1.02870      -0.168342       0.422976        2.15052    
   0.675500       0.681000E-01    3642.51        2.48986        1.03066      -0.173662       0.415729        2.16179    
   0.700600       0.638600E-01    3584.08        2.47130        1.03198      -0.176942       0.411209        2.16936    
   0.725600       0.596100E-01    3530.60        2.45965        1.03291      -0.178985       0.408292        2.17457    
   0.750700       0.553500E-01    3480.23        2.45226        1.03359      -0.180261       0.406365        2.17830    
   0.775700       0.510900E-01    3430.33        2.44751        1.03413      -0.181066       0.405046        2.18110    
   0.800800       0.468400E-01    3382.81        2.44442        1.03456      -0.181584       0.404114        2.18331    
   0.825800       0.425800E-01    3336.63        2.44242        1.03493      -0.181927       0.403429        2.18516    
   0.850900       0.383400E-01    3282.62        2.44119        1.03527      -0.182166       0.402899        2.18683    
   0.876000       0.341100E-01    3237.68        2.44050        1.03560      -0.182338       0.402478        2.18840    
   0.901000       0.299100E-01    3182.90        2.44029        1.03594      -0.182477       0.402129        2.18999    
   0.926100       0.257400E-01    3118.54        2.44065        1.03631      -0.182600       0.401837        2.19175    
   0.951100       0.216700E-01    3041.96        2.44183        1.03676      -0.182729       0.401597        2.19391    
   0.976200       0.177600E-01    2953.47        2.44944        1.03749      -0.182863       0.402157        2.19736    
    1.00100       0.143700E-01    2422.94        2.67121        1.02233      -0.142136       0.455221        2.11313    
    1.03400       0.132900E-01    2229.53        3.09494       0.990768      -0.771227E-01   0.561442        1.97194    
    1.06800       0.128600E-01    2301.50        3.36982       0.971921      -0.402547E-01   0.630938        1.89998    
    1.10100       0.126100E-01    2380.22        3.52641       0.961270      -0.206023E-01   0.671082        1.86277    
    1.13400       0.124500E-01    2409.93        3.61112       0.955372      -0.102358E-01   0.693128        1.84309    
    1.16700       0.123300E-01    2397.35        3.65425       0.952283      -0.502963E-02   0.704499        1.83302    
    1.20100       0.122400E-01    2414.88        3.67579       0.950705      -0.249652E-02   0.710241        1.82791    
    1.23400       0.121700E-01    2465.27        3.68694       0.949905      -0.123457E-02   0.713212        1.82532    
    1.26700       0.121100E-01    2477.59        3.69247       0.949521      -0.620408E-03   0.714695        1.82406    
    1.30000       0.120600E-01    2451.66        3.69507       0.949361      -0.362977E-03   0.715403        1.82349    
    1.33400       0.120100E-01    2460.77        3.69612       0.949350      -0.216428E-03   0.715680        1.82337    
    1.36700       0.119700E-01    2506.45        3.69618       0.949423      -0.112663E-03   0.715704        1.82350    
    1.40000       0.119300E-01    2513.73        3.69567       0.949567      -0.699465E-04   0.715570        1.82382    
    1.43300       0.119000E-01    2483.33        3.69445       0.949804      -0.549026E-04   0.715240        1.82439    
    1.46700       0.118700E-01    2490.68        3.69239       0.950138      -0.496697E-04   0.714689        1.82523    
    1.50000       0.118300E-01    2573.75        3.69204       0.950192      -0.503857E-04   0.714594        1.82537    
  -0.500000       0.239100E-01    2468.89        4.00000        1.00000        0.00000       0.714286        2.00000    
  -0.466800       0.239700E-01    2463.82        4.00000        1.00000       0.114812E-05   0.714285        2.00000    
  -0.433600       0.240400E-01    2453.05        4.00001        1.00000      -0.185595E-05   0.714286        2.00000    
  -0.400300       0.241100E-01    2445.07        4.00001        1.00000      -0.131938E-05   0.714288        2.00000    
  -0.367100       0.241800E-01    2441.78        4.00001       0.999999       0.993700E-06   0.714287        2.00000    
  -0.333900       0.242600E-01    2433.83        4.00000       0.999999       0.834713E-06   0.714286        2.00000    
  -0.300700       0.243500E-01    2424.95        4.00001       0.999999       0.174097E-06   0.714288        2.00000    
  -0.267500       0.244600E-01    2414.20        4.00002       0.999999       0.336067E-06   0.714291        2.00000    
  -0.234300       0.245800E-01    2402.57        4.00002       0.999999       0.103520E-05   0.714290        2.00000    
  -0.201100       0.247200E-01    2384.51        4.00005        1.00000      -0.221777E-05   0.714294        2.00000    
  -0.167800       0.249100E-01    2368.35        4.00010        1.00000      -0.149324E-05   0.714302        2.00000    
  -0.134600       0.251400E-01    2353.88        4.00014        1.00000       0.383549E-05   0.714311        2.00000    
  -0.101500       0.254600E-01    2324.07        4.00028        1.00000       0.558896E-05   0.714334        2.00000    
  -0.682700E-01   0.259300E-01    2282.27        4.00062        1.00000       0.174434E-04   0.714392        2.00001    
  -0.350900E-01   0.267300E-01    2228.66        3.99760       0.999985      -0.777056E-04   0.713874        1.99995    
  -0.193300E-02   0.283800E-01    2451.89        4.14932       0.989670       0.165054E-01   0.752972        1.96375    
   0.232300E-01   0.312800E-01    2916.52        4.49597       0.962000       0.531437E-01   0.848923        1.87392    
   0.483800E-01   0.347900E-01    2996.12        4.90425       0.931384       0.897597E-01   0.962961        1.78465    
   0.735000E-01   0.385700E-01    3064.84        5.25127       0.906624       0.116694        1.06107        1.71867    
   0.986100E-01   0.424900E-01    3124.65        5.49336       0.889769       0.133588        1.13043        1.67630    
   0.123700       0.464900E-01    3176.64        5.63945       0.879694       0.143119        1.17273        1.65181    
   0.148800       0.505400E-01    3225.43        5.72029       0.874191       0.148200        1.19622        1.63870    
   0.173900       0.546100E-01    3271.12        5.76272       0.871348       0.150793        1.20854        1.63199    
   0.199000       0.587100E-01    3319.08        5.78408       0.869945       0.152074        1.21472        1.62870    
   0.224100       0.628100E-01    3361.08        5.79466       0.869287       0.152700        1.21774        1.62717    
   0.249200       0.669100E-01    3410.36        5.79985       0.868996       0.152993        1.21919        1.62650    
   0.274300       0.710200E-01    3457.76        5.80252       0.868884       0.153140        1.21989        1.62626    
   0.299400       0.751000E-01    3513.10        5.80393       0.868858       0.153204        1.22022        1.62621    
   0.324500       0.791700E-01    3568.23        5.80497       0.868875       0.153243        1.22042        1.62626    
   0.349600       0.832100E-01    3637.09        5.80566       0.868913       0.153260        1.22053        1.62636    
   0.374700       0.872000E-01    3708.30        5.80650       0.868969       0.153282        1.22066        1.62650    
   0.399800       0.911200E-01    3800.61        5.80737       0.869042       0.153295        1.22078        1.62668    
   0.424900       0.949300E-01    3914.63        5.80885       0.869147       0.153335        1.22100        1.62694    
   0.450000       0.985300E-01    4076.73        5.81095       0.869291       0.153407        1.22136        1.62728    
   0.475200       0.101700        4312.58        5.81660       0.869547       0.153808        1.22243        1.62795    
   0.500300       0.103700        4714.87        5.09675       0.912606       0.101625        1.02539        1.73021    
   0.525400       0.101700        4325.39        4.12046       0.959332       0.180139E-01   0.784048        1.85902    
   0.550500       0.984600E-01    4078.22        3.50327       0.989269      -0.458499E-01   0.637021        1.96280    
   0.575600       0.948500E-01    3911.95        3.12788        1.00792      -0.907792E-01   0.549684        2.04025    
   0.600700       0.910400E-01    3794.72        2.89560        1.01966      -0.121712       0.496471        2.09597    
   0.625800       0.871100E-01    3708.48        2.74872        1.02724      -0.142789       0.463094        2.13547    
   0.650900       0.831200E-01    3632.78        2.65474        1.03224      -0.156985       0.441781        2.16315    
   0.676000       0.790800E-01    3568.10        2.59435        1.03558      -0.166412       0.428039        2.18238    
   0.701100       0.750100E-01    3510.37        2.55561        1.03780      -0.172537       0.419208        2.19534    
   0.726200       0.709200E-01    3456.57        2.53060        1.03931      -0.176505       0.413450        2.20423    
   0.751300       0.668200E-01    3402.46        2.51447        1.04038      -0.179062       0.409668        2.21042    
   0.776500       0.627100E-01    3353.30        2.50404        1.04116      -0.180695       0.407154        2.21482    
   0.801600       0.586100E-01    3315.72        2.49731        1.04175      -0.181746       0.405461        2.21805    
   0.826700       0.545100E-01    3270.05        2.49296        1.04221      -0.182432       0.404293        2.22052    
   0.851800       0.504300E-01    3224.51        2.49018        1.04261      -0.182887       0.403460        2.22256    
   0.876900       0.463900E-01    3176.54        2.48854        1.04296      -0.183205       0.402855        2.22434    
   0.902000       0.423900E-01    3117.24        2.48769        1.04331      -0.183435       0.402393        2.22604    
   0.927200       0.384700E-01    3059.00        2.48754        1.04367      -0.183615       0.402030        2.22779    
   0.952300       0.347000E-01    2998.06        2.48827        1.04409      -0.183758       0.401758        2.22980    
   0.977400       0.312000E-01    2892.96        2.49271        1.04466      -0.183825       0.401963        2.23242    
    1.00300       0.283300E-01    2437.85        2.59587        1.03790      -0.163156       0.426389        2.19094    
    1.03600       0.267100E-01    2238.90        2.88153        1.01608      -0.112414       0.497442        2.07944    
    1.06900       0.259200E-01    2298.45        3.17812       0.994050      -0.674558E-01   0.572366        1.98422    
    1.10200       0.254500E-01    2336.07        3.40556       0.977777      -0.376159E-01   0.630430        1.92209    
    1.13500       0.251400E-01    2364.96        3.55386       0.967259      -0.198899E-01   0.668771        1.88487    
    1.16800       0.249000E-01    2385.81        3.63989       0.961103      -0.101470E-01   0.691286        1.86400    
    1.20100       0.247200E-01    2367.72        3.68584       0.957761      -0.514105E-02   0.703443        1.85290    
    1.23500       0.245800E-01    2381.97        3.70940       0.956024      -0.264459E-02   0.709739        1.84718    
    1.26800       0.244600E-01    2429.74        3.72135       0.955139      -0.135948E-02   0.712966        1.84425    
    1.30100       0.243500E-01    2439.56        3.72714       0.954728      -0.732023E-03   0.714547        1.84284    
    1.33400       0.242600E-01    2448.73        3.72980       0.954570      -0.398289E-03   0.715287        1.84224    
    1.36700       0.241800E-01    2456.44        3.73066       0.954562      -0.236411E-03   0.715551        1.84210    
    1.40000       0.241100E-01    2426.68        3.73026       0.954674      -0.191390E-03   0.715477        1.84231    
    1.43400       0.240400E-01    2434.60        3.72900       0.954883      -0.145711E-03   0.715172        1.84280    
    1.46700       0.239700E-01    2478.78        3.72701       0.955180      -0.963520E-04   0.714670        1.84352    
    1.50000       0.239100E-01    2483.85        3.72666       0.955232      -0.976929E-04   0.714575        1.84366    
  -0.500000       0.362300E-01    2416.65        4.00000        1.00000        0.00000       0.714286        2.00000    
  -0.466800       0.363200E-01    2416.14        4.00000       0.999999       0.184747E-06   0.714286        2.00000    
  -0.433700       0.364200E-01    2410.32        4.00000        1.00000       0.110617E-05   0.714285        2.00000    
  -0.400500       0.365300E-01    2399.91        4.00000        1.00000      -0.118253E-05   0.714285        2.00000    
  -0.367300       0.366400E-01    2395.86        4.00001        1.00000      -0.787630E-07   0.714287        2.00000    
  -0.334200       0.367600E-01    2388.21        4.00001        1.00000      -0.812897E-08   0.714288        2.00000    
  -0.301000       0.369000E-01    2378.72        4.00002        1.00000      -0.110265E-06   0.714289        2.00000    
  -0.267900       0.370600E-01    2370.22        4.00003        1.00000       0.346740E-06   0.714291        2.00000    
  -0.234700       0.372400E-01    2358.98        4.00004        1.00000       0.683727E-07   0.714293        2.00000    
  -0.201600       0.374600E-01    2348.60        4.00003        1.00000       0.221549E-05   0.714292        2.00000    
  -0.168500       0.377200E-01    2329.24        4.00005       0.999999       0.954363E-07   0.714295        2.00000    
  -0.135300       0.380700E-01    2309.15        4.00014       0.999999       0.197072E-06   0.714311        2.00000    
  -0.102200       0.385400E-01    2287.01        4.00026        1.00000       0.568515E-05   0.714332        2.00000    
  -0.690900E-01   0.392200E-01    2253.10        4.00044       0.999998       0.180577E-04   0.714367        1.99999    
  -0.359900E-01   0.402900E-01    2211.70        3.99852        1.00000      -0.829799E-04   0.714020        2.00000    
  -0.292100E-02   0.422200E-01    2465.35        4.07805       0.994717       0.865985E-02   0.734318        1.98124    
   0.223200E-01   0.448400E-01    2890.36        4.28587       0.978846       0.315473E-01   0.790355        1.92746    
   0.475500E-01   0.480400E-01    2951.88        4.61668       0.953965       0.640615E-01   0.881026        1.84976    
   0.727300E-01   0.515500E-01    3010.90        4.97916       0.927525       0.952984E-01   0.982045        1.77441    
   0.979100E-01   0.552400E-01    3062.43        5.28999       0.905471       0.118981        1.07006        1.71613    
   0.123100       0.590400E-01    3116.96        5.51196       0.889832       0.134367        1.13400        1.67682    
   0.148200       0.629000E-01    3161.27        5.64839       0.880322       0.143351        1.17364        1.65370    
   0.173400       0.668100E-01    3200.75        5.72614       0.874932       0.148264        1.19636        1.64081    
   0.198600       0.707500E-01    3252.31        5.76748       0.872058       0.150832        1.20850        1.63400    
   0.223700       0.747000E-01    3296.20        5.78852       0.870587       0.152126        1.21471        1.63052    
   0.248900       0.786500E-01    3339.92        5.79883       0.869857       0.152754        1.21777        1.62880    
   0.274000       0.825900E-01    3389.18        5.80378       0.869495       0.153053        1.21926        1.62794    
   0.299200       0.865100E-01    3439.92        5.80605       0.869315       0.153186        1.21996        1.62750    
   0.324300       0.904000E-01    3489.15        5.80731       0.869222       0.153248        1.22035        1.62727    
   0.349500       0.942400E-01    3560.39        5.80782       0.869169       0.153269        1.22053        1.62713    
   0.374600       0.980200E-01    3626.27        5.80841       0.869136       0.153280        1.22070        1.62704    
   0.399800       0.101700        3717.02        5.80888       0.869120       0.153286        1.22083        1.62699    
   0.424900       0.105200        3828.74        5.80987       0.869116       0.153306        1.22106        1.62698    
   0.450100       0.108400        3984.46        5.81129       0.869137       0.153362        1.22135        1.62704    