Title="2-D Euler solver"
Variables="I","J","JACOBIAN","rho","u","v","p","MACH"

Zone I=    71, J=    48, F=POINT
  -0.500000        0.00000        2569.43        4.00000        1.00000        0.00000       0.714286        2.00000    
  -0.466700        0.00000        2550.83        4.00000        1.00000        0.00000       0.714285        2.00000    
  -0.433300        0.00000        2545.42        3.99953       0.999927        0.00000       0.714285        1.99974    
  -0.400000        0.00000        2543.84        4.00092        1.00014        0.00000       0.714288        2.00051    
  -0.366700        0.00000        2530.38        4.00001        1.00000        0.00000       0.714288        2.00000    
  -0.333300        0.00000        2521.87        4.00002        1.00000        0.00000       0.714287        2.00001    
  -0.300000        0.00000        2514.03        3.99868       0.999792        0.00000       0.714288        1.99925    
  -0.266700        0.00000        2500.83        4.00003        1.00000        0.00000       0.714288        2.00001    
  -0.233300        0.00000        2488.38        3.99906       0.999851        0.00000       0.714288        1.99946    
  -0.200000        0.00000        2477.73        3.99787       0.999659        0.00000       0.714295        1.99877    
  -0.166700        0.00000        2456.78        4.00374        1.00057        0.00000       0.714296        2.00207    
  -0.133300        0.00000        2431.87        4.00312        1.00047        0.00000       0.714310        2.00168    
  -0.100000        0.00000        2403.24        3.99752       0.999565        0.00000       0.714340        1.99844    
  -0.666700E-01    0.00000        2351.90        4.00074        1.00000        0.00000       0.714416        2.00000    
  -0.333300E-01    0.00000        2266.60        3.99694       0.999995        0.00000       0.713744        1.99998    
    0.00000        0.00000        2335.37        4.15774       0.971486       0.734485E-01   0.775686        1.90632    
   0.250000E-01   0.441000E-02    2958.72        4.61386       0.917835       0.161906       0.924146        1.76002    
   0.500000E-01   0.882000E-02    3086.92        5.18900       0.873367       0.154062        1.09867        1.62890    
   0.750000E-01   0.132300E-01    3174.02        5.59644       0.855025       0.150826        1.21094        1.57748    
   0.100000       0.176400E-01    3242.59        5.69640       0.860505       0.151793        1.22600        1.59184    
   0.125000       0.220500E-01    3306.60        5.73296       0.869915       0.153453        1.22060        1.61797    
   0.150000       0.264600E-01    3354.06        5.74332       0.874275       0.154222        1.21652        1.63027    
   0.175000       0.308700E-01    3410.24        5.75988       0.876830       0.154673        1.21632        1.63753    
   0.200000       0.352800E-01    3450.30        5.76680       0.875384       0.154418        1.22013        1.63325    
   0.225000       0.396900E-01    3508.24        5.77031       0.876043       0.154534        1.22002        1.63505    
   0.250000       0.441000E-01    3550.64        5.76592       0.875571       0.154451        1.22014        1.63346    
   0.275000       0.485100E-01    3607.15        5.76904       0.876352       0.154588        1.21969        1.63567    
   0.300000       0.529200E-01    3655.33        5.76532       0.875661       0.154467        1.22011        1.63357    
   0.325000       0.573300E-01    3722.16        5.76842       0.876414       0.154599        1.21971        1.63569    
   0.350000       0.617400E-01    3780.62        5.76408       0.875687       0.154471        1.22017        1.63340    
   0.375000       0.661500E-01    3867.04        5.76672       0.876630       0.154638        1.21967        1.63587    
   0.400000       0.705600E-01    3953.49        5.76285       0.875616       0.154459        1.22014        1.63312    
   0.425000       0.749700E-01    4085.31        5.76777       0.876617       0.154635        1.21997        1.63580    
   0.450000       0.793800E-01    4244.03        5.75765       0.877482       0.154788        1.22052        1.63560    
   0.475000       0.837900E-01    4572.81        5.75836       0.873863       0.154149        1.22319        1.62718    
   0.500000       0.882000E-01    5673.76        4.93516       0.941022        0.00000       0.970735        1.79323    
   0.525000       0.837900E-01    4576.51        3.66744        1.03002      -0.181696       0.629329        2.13392    
   0.550000       0.793800E-01    4261.46        2.98583        1.05284      -0.185721       0.490762        2.22869    
   0.575000       0.749700E-01    4076.26        2.66634        1.04315      -0.184012       0.449446        2.18050    
   0.600000       0.705600E-01    3945.01        2.55284        1.04391      -0.184145       0.427136        2.19018    
   0.625000       0.661500E-01    3857.07        2.46506        1.04302      -0.183988       0.419192        2.17064    
   0.650000       0.617400E-01    3778.21        2.40902        1.03891      -0.183264       0.409015        2.16382    
   0.675000       0.573300E-01    3719.82        2.39163        1.03880      -0.183244       0.405242        2.16576    
   0.700000       0.529200E-01    3653.08        2.37591        1.03624      -0.182792       0.404356        2.15567    
   0.725000       0.485100E-01    3603.33        2.37222        1.03654      -0.182845       0.403498        2.15691    
   0.750000       0.441000E-01    3548.52        2.36691        1.03613      -0.182774       0.402847        2.15539    
   0.775000       0.396900E-01    3507.34        2.37375        1.03846      -0.183185       0.402362        2.16467    
   0.800000       0.352800E-01    3449.43        2.36892        1.03786      -0.183078       0.401921        2.16238    
   0.825000       0.308700E-01    3409.39        2.37159        1.03874      -0.183234       0.401761        2.16587    
   0.850000       0.264600E-01    3351.84        2.36962        1.03874      -0.183233       0.401346        2.16608    
   0.875000       0.220500E-01    3296.19        2.36552        1.03786      -0.183079       0.401264        2.16261    
   0.900000       0.176400E-01    3241.12        2.37005        1.03930      -0.183332       0.400927        2.16858    
   0.925000       0.132300E-01    3176.11        2.37015        1.03946      -0.183362       0.400847        2.16919    
   0.950000       0.882000E-02    3089.94        2.37726        1.04139      -0.183702       0.400532        2.17733    
   0.975000       0.441000E-02    2959.31        2.34808        1.03992      -0.183442       0.400642        2.16057    
    1.00000        0.00000        2359.73        2.53449        1.02420      -0.778742E-01   0.443026        2.07635    
    1.03300        0.00000        2257.15        2.95617       0.982365        0.00000       0.545987        1.93189    
    1.06700        0.00000        2339.40        3.36884       0.950681        0.00000       0.650952        1.82783    
    1.10000        0.00000        2425.21        3.60148       0.941407        0.00000       0.704647        1.79874    
    1.13300        0.00000        2420.99        3.68232       0.946447        0.00000       0.715273        1.81492    
    1.16700        0.00000        2444.78        3.72501       0.954908        0.00000       0.714975        1.84211    
    1.20000        0.00000        2500.25        3.77233       0.963265        0.00000       0.715416        1.86942    
    1.23300        0.00000        2477.24        3.72246       0.954424        0.00000       0.714981        1.84054    
    1.26700        0.00000        2489.64        3.74037       0.957213        0.00000       0.715531        1.84964    
    1.30000        0.00000        2536.88        3.74531       0.956757        0.00000       0.717009        1.84807    
    1.33300        0.00000        2510.58        3.77693       0.962809        0.00000       0.716849        1.86781    
    1.36700        0.00000        2519.05        3.74775       0.957444        0.00000       0.716725        1.85037    
    1.40000        0.00000        2566.97        3.74671       0.958287        0.00000       0.715961        1.85273    
    1.43300        0.00000        2534.02        3.74091       0.957800        0.00000       0.715558        1.85088    
    1.46700        0.00000        2539.41        3.73794       0.958291        0.00000       0.714750        1.85213    
    1.50000        0.00000        2628.73        3.73765       0.958337        0.00000       0.714670        1.85225    
  -0.500000       0.118300E-01    2511.92        4.00000        1.00000        0.00000       0.714286        2.00000    
  -0.466700       0.118700E-01    2505.62        4.00000        1.00000      -0.718140E-06   0.714285        2.00000    
  -0.433400       0.119000E-01    2502.07        4.00000        1.00000       0.117681E-05   0.714285        2.00000    
  -0.400200       0.119300E-01    2494.80        4.00001       0.999998       0.180040E-05   0.714288        1.99999    
  -0.366900       0.119700E-01    2483.82        4.00001        1.00000       0.134124E-06   0.714288        2.00000    
  -0.333600       0.120100E-01    2475.60        4.00001        1.00000      -0.926401E-06   0.714287        2.00000    
  -0.300300       0.120600E-01    2470.13        4.00002        1.00000      -0.702131E-07   0.714288        2.00000    
  -0.267100       0.121100E-01    2459.00        4.00002        1.00000       0.153116E-05   0.714288        2.00000    
  -0.233800       0.121700E-01    2443.26        4.00001        1.00000      -0.962048E-06   0.714288        2.00000    
  -0.200500       0.122400E-01    2433.01        4.00004       0.999999       0.138552E-06   0.714295        2.00000    
  -0.167300       0.123300E-01    2414.37        4.00003       0.999996       0.255620E-05   0.714296        1.99998    
  -0.134000       0.124500E-01    2388.50        4.00014        1.00000       0.532045E-06   0.714310        2.00000    
  -0.100700       0.126100E-01    2360.27        4.00033        1.00000       0.167352E-05   0.714340        2.00001    
  -0.674600E-01   0.128600E-01    2318.59        4.00083        1.00001       0.120744E-04   0.714416        2.00005    
  -0.342100E-01   0.133000E-01    2246.82        3.99674       0.999964      -0.429766E-04   0.713744        1.99987    
  -0.958600E-03   0.144000E-01    2403.67        4.23673       0.983906       0.214386E-01   0.775686        1.94386    
   0.241200E-01   0.178100E-01    2940.21        4.79788       0.946032       0.739124E-01   0.924146        1.82733    
   0.491900E-01   0.217200E-01    3042.24        5.42329       0.904611       0.110149        1.09867        1.71116    
   0.742500E-01   0.258000E-01    3119.15        5.80122       0.877904       0.131335        1.21094        1.64205    
   0.993100E-01   0.299600E-01    3180.03        5.83916       0.871633       0.145110        1.22600        1.62981    
   0.124400       0.341600E-01    3238.45        5.81937       0.871591       0.151086        1.22060        1.63241    
   0.149400       0.383900E-01    3287.93        5.80642       0.872069       0.153734        1.21652        1.63504    
   0.174500       0.426300E-01    3336.88        5.80584       0.872131       0.153691        1.21632        1.63518    
   0.199500       0.468900E-01    3383.08        5.81781       0.871444       0.153462        1.22013        1.63300    
   0.224600       0.511400E-01    3430.62        5.81721       0.871465       0.153699        1.22002        1.63310    
   0.249600       0.554000E-01    3479.48        5.81643       0.871512       0.153750        1.22014        1.63300    
   0.274700       0.596600E-01    3528.25        5.81482       0.871598       0.153798        1.21969        1.63326    
   0.299700       0.639100E-01    3583.23        5.81567       0.871582       0.153741        1.22011        1.63304    
   0.324800       0.681500E-01    3641.60        5.81417       0.871658       0.153801        1.21971        1.63326    
   0.349800       0.723800E-01    3707.07        5.81481       0.871665       0.153757        1.22017        1.63304    
   0.374900       0.765800E-01    3783.88        5.81208       0.871816       0.153843        1.21967        1.63329    
   0.399900       0.807500E-01    3877.05        5.81452       0.871736       0.153736        1.22014        1.63314    
   0.425000       0.848600E-01    3996.77        5.81371       0.871888       0.153846        1.21997        1.63346    
   0.450000       0.888800E-01    4169.21        5.80436       0.872866       0.154044        1.22052        1.63361    
   0.475100       0.926500E-01    4464.55        5.82720       0.872424       0.154089        1.22319        1.63425    
   0.500100       0.956000E-01    5150.93        4.84940       0.922955       0.965711E-01   0.970735        1.75297    
   0.525200       0.926200E-01    4444.45        3.49289       0.997025      -0.293132E-01   0.629329        1.98602    
   0.550200       0.888300E-01    4167.50        2.90481        1.02941      -0.101479       0.490762        2.12690    
   0.575300       0.848200E-01    3988.64        2.68338        1.03443      -0.139243       0.449446        2.15545    
   0.600400       0.807100E-01    3876.55        2.60778        1.04053      -0.159620       0.427136        2.19833    
   0.625400       0.765400E-01    3785.01        2.53825        1.04257      -0.170389       0.419192        2.19697    
   0.650500       0.723300E-01    3708.05        2.50695        1.04330      -0.176463       0.409017        2.21398    
   0.675500       0.681000E-01    3642.51        2.49494        1.04399      -0.179316       0.405243        2.22135    
   0.700600       0.638600E-01    3584.08        2.49233        1.04407      -0.182310       0.404356        2.22387    
   0.725600       0.596100E-01    3530.60        2.48968        1.04444      -0.183367       0.403498        2.22618    
   0.750700       0.553500E-01    3480.23        2.48790        1.04481      -0.183803       0.402847        2.22811    
   0.775700       0.510900E-01    3430.33        2.48670        1.04514      -0.183981       0.402362        2.22966    
   0.800800       0.468400E-01    3382.81        2.48601        1.04548      -0.184158       0.401921        2.23136    
   0.825800       0.425800E-01    3336.63        2.48523        1.04553      -0.184162       0.401761        2.23156    
   0.850900       0.383400E-01    3282.62        2.48583        1.04606      -0.184387       0.401346        2.23416    
   0.876000       0.341100E-01    3237.68        2.48534        1.04608      -0.184377       0.401265        2.23419    
   0.901000       0.299100E-01    3182.90        2.48669        1.04664      -0.184550       0.400927        2.23698    
   0.926100       0.257400E-01    3118.54        2.48582        1.04660      -0.184512       0.400847        2.23670    
   0.951100       0.216700E-01    3041.96        2.48896        1.04743      -0.184711       0.400532        2.24080    
   0.976200       0.177600E-01    2953.47        2.45800        1.04592      -0.186336       0.400642        2.22399    
    1.00100       0.143700E-01    2422.94        2.62463        1.03288      -0.153913       0.443025        2.14820    
    1.03400       0.132900E-01    2229.53        3.08687        1.00606      -0.872913E-01   0.545987        2.02935    
    1.06800       0.128600E-01    2301.50        3.50394       0.976769      -0.432319E-01   0.650952        1.91715    
    1.10100       0.126100E-01    2380.22        3.71121       0.962484      -0.190927E-01   0.704647        1.86718    
    1.13400       0.124500E-01    2409.93        3.75423       0.960084      -0.677810E-02   0.715273        1.85900    
    1.16700       0.123300E-01    2397.35        3.75341       0.960214      -0.206140E-02   0.714975        1.85940    
    1.20100       0.122400E-01    2414.88        3.75534       0.960141      -0.664289E-03   0.715418        1.85916    
    1.23400       0.121700E-01    2465.27        3.75368       0.960259      -0.756734E-04   0.714985        1.85953    
    1.26700       0.121100E-01    2477.59        3.75574       0.960073      -0.229297E-03   0.715531        1.85898    
    1.30000       0.120600E-01    2451.66        3.76122       0.959702      -0.252384E-03   0.717019        1.85768    
    1.33400       0.120100E-01    2460.77        3.76068       0.959801      -0.112390E-03   0.716866        1.85794    
    1.36700       0.119700E-01    2506.45        3.76021       0.959737       0.271742E-04   0.716744        1.85786    
    1.40000       0.119300E-01    2513.73        3.75742       0.960217      -0.103180E-04   0.716008        1.85905    
    1.43300       0.119000E-01    2483.33        3.75596       0.960520      -0.658028E-04   0.715620        1.85978    
    1.46700       0.118700E-01    2490.68        3.75298       0.960990      -0.644630E-04   0.714828        1.86098    
    1.50000       0.118300E-01    2573.75        3.75269       0.961033      -0.663129E-04   0.714750        1.86110    
  -0.500000       0.239100E-01    2468.89        4.00000        1.00000        0.00000       0.714286        2.00000    
  -0.466800       0.239700E-01    2463.82        4.00000        1.00000       0.120214E-05   0.714285        2.00000    
  -0.433600       0.240400E-01    2453.05        4.00001        1.00000      -0.191884E-05   0.714286        2.00000    
  -0.400300       0.241100E-01    2445.07        4.00001       0.999999      -0.135462E-05   0.714289        2.00000    
  -0.367100       0.241800E-01    2441.78        4.00001       0.999999       0.989165E-06   0.714288        2.00000    
  -0.333900       0.242600E-01    2433.83        4.00000       0.999999       0.849032E-06   0.714286        2.00000    
  -0.300700       0.243500E-01    2424.95        4.00001       0.999999       0.866075E-07   0.714288        2.00000    
  -0.267500       0.244600E-01    2414.20        4.00002       0.999999       0.271405E-06   0.714291        2.00000    
  -0.234300       0.245800E-01    2402.57        4.00002       0.999999       0.107800E-05   0.714290        2.00000    
  -0.201100       0.247200E-01    2384.51        4.00004        1.00000      -0.213827E-05   0.714293        2.00000    
  -0.167800       0.249100E-01    2368.35        4.00008        1.00000      -0.227265E-05   0.714299        2.00000    
  -0.134600       0.251400E-01    2353.88        4.00012       0.999998       0.358939E-05   0.714308        1.99999    
  -0.101500       0.254600E-01    2324.07        4.00025        1.00000       0.504142E-05   0.714330        2.00000    
  -0.682700E-01   0.259300E-01    2282.27        4.00062        1.00000       0.188510E-04   0.714392        2.00001    
  -0.350900E-01   0.267300E-01    2228.66        3.99766       0.999982      -0.817626E-04   0.713888        1.99994    
  -0.193300E-02   0.283800E-01    2451.89        4.09031       0.993723       0.101141E-01   0.737682        1.97773    
   0.232300E-01   0.312800E-01    2916.52        4.40153       0.970545       0.427085E-01   0.821417        1.90061    
   0.483800E-01   0.347900E-01    2996.12        4.90083       0.934366       0.888275E-01   0.958258        1.79391    
   0.735000E-01   0.385700E-01    3064.84        5.32212       0.899938       0.124699        1.08347        1.70181    
   0.986100E-01   0.424900E-01    3124.65        5.55958       0.882488       0.143968        1.15222        1.65998    
   0.123700       0.464900E-01    3176.64        5.68788       0.874063       0.150839        1.18897        1.63961    
   0.148800       0.505400E-01    3225.43        5.75964       0.869925       0.151851        1.20958        1.62861    
   0.173900       0.546100E-01    3271.12        5.78680       0.868473       0.151753        1.21741        1.62452    
   0.199000       0.587100E-01    3319.08        5.79491       0.868001       0.152360        1.21966        1.62349    
   0.224100       0.628100E-01    3361.08        5.79578       0.867972       0.152888        1.21977        1.62365    
   0.249200       0.669100E-01    3410.36        5.79666       0.867989       0.153074        1.21991        1.62378    
   0.274300       0.710200E-01    3457.76        5.79804       0.868024       0.153036        1.22019        1.62383    
   0.299400       0.751000E-01    3513.10        5.79877       0.868085       0.153056        1.22029        1.62399    
   0.324500       0.791700E-01    3568.23        5.79918       0.868189       0.153070        1.22026        1.62426    
   0.349600       0.832100E-01    3637.09        5.79972       0.868278       0.153111        1.22028        1.62449    
   0.374700       0.872000E-01    3708.30        5.80018       0.868414       0.153126        1.22024        1.62483    
   0.399800       0.911200E-01    3800.61        5.80086       0.868558       0.153150        1.22024        1.62520    
   0.424900       0.949300E-01    3914.63        5.80252       0.868736       0.153191        1.22043        1.62565    
   0.450000       0.985300E-01    4076.73        5.80396       0.869047       0.153294        1.22069        1.62627    
   0.475200       0.101700        4312.58        5.81121       0.870097       0.153796        1.22185        1.62858    
   0.500300       0.103700        4714.87        5.27968       0.903036       0.116339        1.07504        1.70532    
   0.525400       0.101700        4325.39        4.17585       0.961709       0.249002E-01   0.794786        1.86368    
   0.550500       0.984600E-01    4078.22        3.38403        1.00638      -0.661149E-01   0.597807        2.02800    
   0.575600       0.948500E-01    3911.95        3.04204        1.02500      -0.116710       0.516861        2.11521    
   0.600700       0.910400E-01    3794.72        2.85030        1.03536      -0.145355       0.472349        2.17060    
   0.625800       0.871100E-01    3708.48        2.73191        1.04196      -0.160487       0.445670        2.20600    
   0.650900       0.831200E-01    3632.78        2.65407        1.04634      -0.171118       0.428138        2.23103    
   0.676000       0.790800E-01    3568.10        2.60630        1.04910      -0.176885       0.417521        2.24653    
   0.701100       0.750100E-01    3510.37        2.57673        1.05081      -0.180601       0.410943        2.25645    
   0.726200       0.709200E-01    3456.57        2.55929        1.05185      -0.182734       0.407062        2.26244    
   0.751300       0.668200E-01    3402.46        2.54913        1.05248      -0.183954       0.404782        2.26604    
   0.776500       0.627100E-01    3353.30        2.54308        1.05287      -0.184585       0.403425        2.26820    
   0.801600       0.586100E-01    3315.72        2.53920        1.05313      -0.184971       0.402543        2.26965    
   0.826700       0.545100E-01    3270.05        2.53708        1.05328      -0.185156       0.402060        2.27044    
   0.851800       0.504300E-01    3224.51        2.53534        1.05341      -0.185366       0.401642        2.27119    
   0.876900       0.463900E-01    3176.54        2.53438        1.05350      -0.185449       0.401395        2.27169    
   0.902000       0.423900E-01    3117.24        2.53336        1.05362      -0.185533       0.401119        2.27228    
   0.927200       0.384700E-01    3059.00        2.53274        1.05373      -0.185538       0.400915        2.27282    
   0.952300       0.347000E-01    2998.06        2.53230        1.05387      -0.185575       0.400713        2.27349    
   0.977400       0.312000E-01    2892.96        2.51762        1.05217      -0.186432       0.400023        2.26563    
    1.00300       0.283300E-01    2437.85        2.56986        1.04787      -0.173292       0.414595        2.23484    
    1.03600       0.267100E-01    2238.90        2.82541        1.02962      -0.127268       0.476757        2.13450    
    1.06900       0.259200E-01    2298.45        3.20050        1.00422      -0.697814E-01   0.566967        2.02136    
    1.10200       0.254500E-01    2336.07        3.48684       0.984202      -0.305605E-01   0.638931        1.94410    
    1.13500       0.251400E-01    2364.96        3.63579       0.973964      -0.107644E-01   0.676658        1.90818    
    1.16800       0.249000E-01    2385.81        3.71829       0.967658      -0.341077E-02   0.698635        1.88672    
    1.20100       0.247200E-01    2367.72        3.75310       0.963498      -0.137247E-02   0.710164        1.87199    
    1.23500       0.245800E-01    2381.97        3.77118       0.963781      -0.908754E-03   0.712686        1.87372    
    1.26800       0.244600E-01    2429.74        3.78204       0.962916      -0.786440E-03   0.715583        1.87093    
    1.30100       0.243500E-01    2439.56        3.78596       0.962659      -0.455779E-03   0.716683        1.86996    
    1.33400       0.242600E-01    2448.73        3.78496       0.962763      -0.101578E-03   0.716435        1.87024    
    1.36700       0.241800E-01    2456.44        3.78478       0.962832       0.702248E-04   0.716424        1.87035    
    1.40000       0.241100E-01    2426.68        3.78389       0.962994      -0.109732E-03   0.716213        1.87072    
    1.43400       0.240400E-01    2434.60        3.78175       0.963312      -0.162862E-03   0.715669        1.87152    
    1.46700       0.239700E-01    2478.78        3.77841       0.963778      -0.105393E-03   0.714809        1.87272    
    1.50000       0.239100E-01    2483.85        3.77812       0.963820      -0.108572E-03   0.714731        1.87283    
  -0.500000       0.362300E-01    2416.65        4.00000        1.00000        0.00000       0.714286        2.00000    
  -0.466800       0.363200E-01    2416.14        4.00000       0.999999       0.436382E-07   0.714286        2.00000    
  -0.433700       0.364200E-01    2410.32        4.00000        1.00000       0.953528E-06   0.714285        2.00000    
  -0.400500       0.365300E-01    2399.91        4.00000        1.00000      -0.126868E-05   0.714285        2.00000    
  -0.367300       0.366400E-01    2395.86        4.00001        1.00000      -0.219921E-07   0.714287        2.00000    
  -0.334200       0.367600E-01    2388.21        4.00001        1.00000       0.576891E-07   0.714288        2.00000    
  -0.301000       0.369000E-01    2378.72        4.00001        1.00000      -0.106003E-06   0.714289        2.00000    
  -0.267900       0.370600E-01    2370.22        4.00002        1.00000       0.337258E-06   0.714290        2.00000    
  -0.234700       0.372400E-01    2358.98        4.00004        1.00000       0.895717E-07   0.714293        2.00000    
  -0.201600       0.374600E-01    2348.60        4.00003        1.00000       0.219470E-05   0.714291        2.00000    
  -0.168500       0.377200E-01    2329.24        4.00004        1.00000      -0.264564E-06   0.714293        2.00000    
  -0.135300       0.380700E-01    2309.15        4.00012        1.00000      -0.571673E-06   0.714307        2.00000    
  -0.102200       0.385400E-01    2287.01        4.00022       0.999999       0.464697E-05   0.714326        2.00000    
  -0.690900E-01   0.392200E-01    2253.10        4.00044       0.999998       0.194072E-04   0.714367        1.99999    
  -0.359900E-01   0.402900E-01    2211.70        3.99857       0.999998      -0.869804E-04   0.714032        1.99999    
  -0.292100E-02   0.422200E-01    2465.35        4.03770       0.997457       0.417833E-02   0.723941        1.99090    
   0.223200E-01   0.448400E-01    2890.36        4.19528       0.985952       0.216926E-01   0.765624        1.95105    
   0.475500E-01   0.480400E-01    2951.88        4.55411       0.959415       0.578834E-01   0.862859        1.86622    
   0.727300E-01   0.515500E-01    3010.90        5.02376       0.925563       0.982273E-01   0.992967        1.76938    
   0.979100E-01   0.552400E-01    3062.43        5.40839       0.897042       0.125177        1.10470        1.69375    
   0.123100       0.590400E-01    3116.96        5.63621       0.881127       0.138675        1.17119        1.65374    
   0.148200       0.629000E-01    3161.27        5.75331       0.875051       0.145883        1.20214        1.64023    
   0.173400       0.668100E-01    3200.75        5.78886       0.871987       0.150055        1.21311        1.63354    
   0.198600       0.707500E-01    3252.31        5.79812       0.870829       0.152094        1.21637        1.63119    
   0.223700       0.747000E-01    3296.20        5.80212       0.870209       0.153110        1.21787        1.62994    
   0.248900       0.786500E-01    3339.92        5.80720       0.869853       0.153319        1.21940        1.62905    
   0.274000       0.825900E-01    3389.18        5.80970       0.869568       0.153227        1.22036        1.62821    
   0.299200       0.865100E-01    3439.92        5.80929       0.869506       0.153275        1.22036        1.62807    
   0.324300       0.904000E-01    3489.15        5.80876       0.869469       0.153291        1.22030        1.62797    
   0.349500       0.942400E-01    3560.39        5.80843       0.869410       0.153293        1.22032        1.62780    
   0.374600       0.980200E-01    3626.27        5.80818       0.869369       0.153281        1.22034        1.62768    
   0.399800       0.101700        3717.02        5.80820       0.869301       0.153260        1.22034        1.62755    
   0.424900       0.105200        3828.74        5.80818       0.869337       0.153270        1.22055        1.62747    
   0.450100       0.108400        3984.46        5.80907       0.869155       0.153263        1.22065        1.62720    